  192  192    5    1
  0.1003802E+02  0.1244466E-08  0.1244466E-08  0.1244466E-08  0.1000000E-14
   300.000000000000     
  CAR 
 H2Otest NPT                             
    512      1    360
