       N       E                     dE             d eps       ncg     rms          rms(c)
RMM:   1     0.737562637469E+04    0.73756E+04   -0.17109E+05   360   0.103E+03
RMM:   2     0.230036453339E+04   -0.50753E+04   -0.53733E+04   360   0.271E+02
RMM:   3     0.182013648204E+03   -0.21184E+04   -0.22518E+04   360   0.188E+02
RMM:   4    -0.740314524847E+03   -0.92233E+03   -0.78354E+03   360   0.131E+02
RMM:   5    -0.959285825261E+03   -0.21897E+03   -0.20007E+03   360   0.680E+01
RMM:   6    -0.101297007910E+04   -0.53684E+02   -0.49116E+02   360   0.344E+01
RMM:   7    -0.102662445030E+04   -0.13654E+02   -0.13010E+02   360   0.173E+01
RMM:   8    -0.103050800268E+04   -0.38836E+01   -0.36623E+01   360   0.903E+00
RMM:   9    -0.103195456978E+04   -0.14466E+01   -0.14180E+01   720   0.472E+00
RMM:  10    -0.103213611770E+04   -0.18155E+00   -0.17720E+00   761   0.135E+00
RMM:  11    -0.103214041189E+04   -0.42942E-02   -0.64903E-02   720   0.302E-01
RMM:  12    -0.103214139170E+04   -0.97981E-03   -0.96793E-03   722   0.773E-02    0.600E+01
RMM:  13    -0.938273176286E+03    0.93868E+02   -0.33937E+02   720   0.260E+01    0.224E+01
RMM:  14    -0.936089417864E+03    0.21838E+01   -0.11318E+01   720   0.419E+00    0.144E+01
RMM:  15    -0.935236776676E+03    0.85264E+00   -0.36060E+00   720   0.388E+00    0.228E+00
RMM:  16    -0.935134261027E+03    0.10252E+00   -0.82013E-01   720   0.119E+00    0.737E-01
RMM:  17    -0.935164946138E+03   -0.30685E-01   -0.56086E-02   720   0.367E-01    0.467E-01
RMM:  18    -0.935162186166E+03    0.27600E-02   -0.12760E-02   720   0.195E-01    0.861E-02
RMM:  19    -0.935161263297E+03    0.92287E-03   -0.19169E-03   720   0.622E-02    0.388E-02
RMM:  20    -0.935160963799E+03    0.29950E-03   -0.76216E-04   720   0.345E-02    0.280E-02
RMM:  21    -0.935160910534E+03    0.53265E-04   -0.10263E-04   656   0.120E-02    0.139E-02
RMM:  22    -0.935160889803E+03    0.20731E-04   -0.61355E-05   653   0.103E-02    0.491E-03
RMM:  23    -0.935160886511E+03    0.32922E-05   -0.70808E-06   464   0.380E-03
    1 T=   307. E= -.92742515E+03 F= -.93515968E+03 E0= -.93515968E+03  EK= 0.77345E+01 SP= 0.00E+00 SK= 0.00E+00
       N       E                     dE             d eps       ncg     rms          rms(c)
RMM:   1    -0.936113677388E+03   -0.95279E+00   -0.52310E+01   720   0.133E+01    0.258E+00
RMM:   2    -0.936037829482E+03    0.75848E-01   -0.42268E-01   720   0.110E+00    0.145E+00
RMM:   3    -0.936030299492E+03    0.75300E-02   -0.66864E-02   720   0.400E-01    0.569E-01
RMM:   4    -0.936029342316E+03    0.95718E-03   -0.15727E-02   720   0.182E-01    0.185E-01
RMM:   5    -0.936028982953E+03    0.35936E-03   -0.20315E-03   720   0.694E-02    0.619E-02
RMM:   6    -0.936028826182E+03    0.15677E-03   -0.74385E-04   720   0.371E-02    0.453E-02
RMM:   7    -0.936028743633E+03    0.82549E-04   -0.39968E-04   720   0.268E-02    0.231E-02
RMM:   8    -0.936028700923E+03    0.42710E-04   -0.76285E-05   660   0.119E-02    0.576E-03
RMM:   9    -0.936028692772E+03    0.81508E-05   -0.14258E-05   467   0.483E-03
    2 T=   340. E= -.92746499E+03 F= -.93602749E+03 E0= -.93602749E+03  EK= 0.85625E+01 SP= 0.00E+00 SK= 0.00E+00
       N       E                     dE             d eps       ncg     rms          rms(c)
RMM:   1    -0.935872585870E+03    0.15612E+00   -0.70626E+00   720   0.505E+00    0.138E+00
RMM:   2    -0.935847185900E+03    0.25400E-01   -0.89977E-02   720   0.481E-01    0.655E-01
RMM:   3    -0.935844184848E+03    0.30011E-02   -0.14872E-02   720   0.181E-01    0.279E-01
RMM:   4    -0.935843638753E+03    0.54610E-03   -0.39554E-03   720   0.935E-02    0.904E-02
RMM:   5    -0.935843508380E+03    0.13037E-03   -0.55279E-04   720   0.357E-02    0.276E-02
RMM:   6    -0.935843477350E+03    0.31030E-04   -0.13657E-04   688   0.160E-02    0.190E-02
RMM:   7    -0.935843461914E+03    0.15436E-04   -0.56829E-05   639   0.104E-02    0.773E-03
RMM:   8    -0.935843454892E+03    0.70219E-05   -0.11252E-05   465   0.467E-03
    3 T=   335. E= -.92740257E+03 F= -.93584225E+03 E0= -.93584225E+03  EK= 0.84397E+01 SP= 0.00E+00 SK= 0.00E+00
       N       E                     dE             d eps       ncg     rms          rms(c)
RMM:   1    -0.935144475724E+03    0.69899E+00   -0.40507E+00   720   0.376E+00    0.110E+00
RMM:   2    -0.935125200736E+03    0.19275E-01   -0.68839E-02   720   0.415E-01    0.462E-01
RMM:   3    -0.935124000204E+03    0.12005E-02   -0.89242E-03   720   0.139E-01    0.217E-01
RMM:   4    -0.935123735618E+03    0.26459E-03   -0.25806E-03   720   0.763E-02    0.772E-02
RMM:   5    -0.935123630139E+03    0.10548E-03   -0.40838E-04   720   0.305E-02    0.197E-02
RMM:   6    -0.935123615667E+03    0.14472E-04   -0.10462E-04   677   0.142E-02    0.181E-02
RMM:   7    -0.935123602888E+03    0.12780E-04   -0.43417E-05   625   0.937E-03    0.525E-03
RMM:   8    -0.935123598941E+03    0.39464E-05   -0.56982E-06   463   0.341E-03
    4 T=   310. E= -.92731707E+03 F= -.93512239E+03 E0= -.93512239E+03  EK= 0.78053E+01 SP= 0.00E+00 SK= 0.00E+00
       N       E                     dE             d eps       ncg     rms          rms(c)
RMM:   1    -0.934824428596E+03    0.29917E+00   -0.37609E+00   720   0.361E+00    0.858E-01
RMM:   2    -0.934813962952E+03    0.10466E-01   -0.45259E-02   720   0.340E-01    0.426E-01
RMM:   3    -0.934812759859E+03    0.12031E-02   -0.62559E-03   720   0.117E-01    0.191E-01
RMM:   4    -0.934812572229E+03    0.18763E-03   -0.17793E-03   720   0.627E-02    0.577E-02
RMM:   5    -0.934812520813E+03    0.51416E-04   -0.22627E-04   719   0.225E-02    0.182E-02
RMM:   6    -0.934812508793E+03    0.12020E-04   -0.69663E-05   652   0.113E-02    0.143E-02
RMM:   7    -0.934812500285E+03    0.85083E-05   -0.31495E-05   555   0.794E-03
    5 T=   300. E= -.92724462E+03 F= -.93481129E+03 E0= -.93481129E+03  EK= 0.75667E+01 SP= 0.00E+00 SK= 0.00E+00
       N       E                     dE             d eps       ncg     rms          rms(c)
RMM:   1    -0.935052888456E+03   -0.24038E+00   -0.32881E+00   720   0.344E+00    0.719E-01
RMM:   2    -0.935047445007E+03    0.54434E-02   -0.30260E-02   720   0.279E-01    0.399E-01
RMM:   3    -0.935046358879E+03    0.10861E-02   -0.55626E-03   720   0.110E-01    0.147E-01
RMM:   4    -0.935046232836E+03    0.12604E-03   -0.11007E-03   720   0.489E-02    0.446E-02
RMM:   5    -0.935046208941E+03    0.23895E-04   -0.11386E-04   702   0.162E-02    0.172E-02
RMM:   6    -0.935046197554E+03    0.11387E-04   -0.53428E-05   639   0.975E-03    0.108E-02
RMM:   7    -0.935046193039E+03    0.45155E-05   -0.21467E-05   490   0.652E-03
    6 T=   315. E= -.92710283E+03 F= -.93504498E+03 E0= -.93504498E+03  EK= 0.79421E+01 SP= 0.00E+00 SK= 0.00E+00
       N       E                     dE             d eps       ncg     rms          rms(c)
RMM:   1    -0.935467663822E+03   -0.42147E+00   -0.31830E+00   720   0.337E+00    0.888E-01
RMM:   2    -0.935457281944E+03    0.10382E-01   -0.51409E-02   720   0.346E-01    0.399E-01
RMM:   3    -0.935456494403E+03    0.78754E-03   -0.53563E-03   720   0.107E-01    0.187E-01
RMM:   4    -0.935456320303E+03    0.17410E-03   -0.15875E-03   720   0.615E-02    0.530E-02
RMM:   5    -0.935456276299E+03    0.44004E-04   -0.19010E-04   720   0.205E-02    0.173E-02
RMM:   6    -0.935456270681E+03    0.56182E-05   -0.69640E-05   655   0.115E-02
    7 T=   334. E= -.92703000E+03 F= -.93545506E+03 E0= -.93545506E+03  EK= 0.84251E+01 SP= 0.00E+00 SK= 0.00E+00
       N       E                     dE             d eps       ncg     rms          rms(c)
RMM:   1    -0.935653221514E+03   -0.19695E+00   -0.35575E+00   720   0.354E+00    0.112E+00
RMM:   2    -0.935633516482E+03    0.19705E-01   -0.81299E-02   720   0.437E-01    0.437E-01
RMM:   3    -0.935632541069E+03    0.97541E-03   -0.73646E-03   720   0.124E-01    0.216E-01
RMM:   4    -0.935632297800E+03    0.24327E-03   -0.22872E-03   720   0.743E-02    0.634E-02
RMM:   5    -0.935632224447E+03    0.73353E-04   -0.31698E-04   720   0.263E-02    0.183E-02
RMM:   6    -0.935632214648E+03    0.97989E-05   -0.83670E-05   661   0.126E-02
    8 T=   342. E= -.92701968E+03 F= -.93563100E+03 E0= -.93563100E+03  EK= 0.86113E+01 SP= 0.00E+00 SK= 0.00E+00
       N       E                     dE             d eps       ncg     rms          rms(c)
RMM:   1    -0.935344917582E+03    0.28731E+00   -0.33826E+00   720   0.347E+00    0.115E+00
RMM:   2    -0.935323446939E+03    0.21471E-01   -0.82833E-02   720   0.444E-01    0.457E-01
RMM:   3    -0.935322192132E+03    0.12548E-02   -0.80006E-03   720   0.130E-01    0.224E-01
RMM:   4    -0.935321883966E+03    0.30817E-03   -0.22135E-03   720   0.738E-02    0.622E-02
RMM:   5    -0.935321821209E+03    0.62757E-04   -0.26474E-04   720   0.243E-02    0.183E-02
RMM:   6    -0.935321814431E+03    0.67781E-05   -0.85990E-05   659   0.128E-02
    9 T=   331. E= -.92696749E+03 F= -.93532061E+03 E0= -.93532061E+03  EK= 0.83531E+01 SP= 0.00E+00 SK= 0.00E+00
       N       E                     dE             d eps       ncg     rms          rms(c)
RMM:   1    -0.935140049561E+03    0.18177E+00   -0.42145E+00   720   0.382E+00    0.110E+00
RMM:   2    -0.935120783508E+03    0.19266E-01   -0.71267E-02   720   0.425E-01    0.491E-01
RMM:   3    -0.935119276290E+03    0.15072E-02   -0.93719E-03   720   0.142E-01    0.230E-01
RMM:   4    -0.935119055525E+03    0.22076E-03   -0.27629E-03   720   0.793E-02    0.734E-02
RMM:   5    -0.935118967123E+03    0.88402E-04   -0.41151E-04   720   0.302E-02    0.190E-02
RMM:   6    -0.935118963019E+03    0.41045E-05   -0.82735E-05   656   0.126E-02
   10 T=   322. E= -.92701245E+03 F= -.93511776E+03 E0= -.93511776E+03  EK= 0.81053E+01 SP= 0.00E+00 SK= 0.00E+00
       N       E                     dE             d eps       ncg     rms          rms(c)
RMM:   1    -0.935401805490E+03   -0.28284E+00   -0.45142E+00   720   0.398E+00    0.101E+00
RMM:   2    -0.935386735358E+03    0.15070E-01   -0.58126E-02   720   0.385E-01    0.509E-01
RMM:   3    -0.935385036708E+03    0.16987E-02   -0.95605E-03   720   0.142E-01    0.222E-01
RMM:   4    -0.935384817539E+03    0.21917E-03   -0.24940E-03   720   0.733E-02    0.716E-02
RMM:   5    -0.935384743564E+03    0.73976E-04   -0.32575E-04   720   0.270E-02    0.203E-02
RMM:   6    -0.935384734349E+03    0.92148E-05   -0.95923E-05   663   0.134E-02
   11 T=   327. E= -.92713321E+03 F= -.93538353E+03 E0= -.93538353E+03  EK= 0.82503E+01 SP= 0.00E+00 SK= 0.00E+00
       N       E                     dE             d eps       ncg     rms          rms(c)
RMM:   1    -0.935527385687E+03   -0.14264E+00   -0.40883E+00   720   0.381E+00    0.884E-01
RMM:   2    -0.935517131475E+03    0.10254E-01   -0.45521E-02   720   0.346E-01    0.453E-01
RMM:   3    -0.935515939216E+03    0.11923E-02   -0.71011E-03   720   0.125E-01    0.195E-01
RMM:   4    -0.935515804913E+03    0.13430E-03   -0.17171E-03   720   0.613E-02    0.605E-02
RMM:   5    -0.935515766260E+03    0.38653E-04   -0.20959E-04   716   0.223E-02    0.183E-02
RMM:   6    -0.935515758006E+03    0.82541E-05   -0.63735E-05   642   0.111E-02
   12 T=   331. E= -.92716411E+03 F= -.93551455E+03 E0= -.93551455E+03  EK= 0.83504E+01 SP= 0.00E+00 SK= 0.00E+00
       N       E                     dE             d eps       ncg     rms          rms(c)
RMM:   1    -0.935125321019E+03    0.39045E+00   -0.44148E+00   720   0.394E+00    0.881E-01
RMM:   2    -0.935115561251E+03    0.97598E-02   -0.45399E-02   720   0.342E-01    0.459E-01
RMM:   3    -0.935114260303E+03    0.13009E-02   -0.75908E-03   720   0.129E-01    0.192E-01
RMM:   4    -0.935114059465E+03    0.20084E-03   -0.18854E-03   720   0.606E-02    0.638E-02
RMM:   5    -0.935113996052E+03    0.63413E-04   -0.23505E-04   720   0.231E-02    0.205E-02
RMM:   6    -0.935113971817E+03    0.24236E-04   -0.10605E-04   668   0.138E-02    0.171E-02
RMM:   7    -0.935113958987E+03    0.12829E-04   -0.60060E-05   627   0.998E-03    0.873E-03
RMM:   8    -0.935113951654E+03    0.73335E-05   -0.10584E-05   465   0.443E-03
   13 T=   316. E= -.92713830E+03 F= -.93511275E+03 E0= -.93511275E+03  EK= 0.79744E+01 SP= 0.00E+00 SK= 0.00E+00
       N       E                     dE             d eps       ncg     rms          rms(c)
RMM:   1    -0.934661691521E+03    0.45227E+00   -0.36429E+00   720   0.359E+00    0.786E-01
RMM:   2    -0.934654312244E+03    0.73793E-02   -0.38448E-02   720   0.313E-01    0.407E-01
RMM:   3    -0.934653523698E+03    0.78855E-03   -0.55796E-03   720   0.112E-01    0.173E-01
RMM:   4    -0.934653392619E+03    0.13108E-03   -0.14570E-03   720   0.555E-02    0.547E-02
RMM:   5    -0.934653342232E+03    0.50386E-04   -0.18230E-04   718   0.204E-02    0.172E-02
RMM:   6    -0.934653320626E+03    0.21607E-04   -0.68778E-05   657   0.111E-02    0.136E-02
RMM:   7    -0.934653309422E+03    0.11204E-04   -0.30574E-05   541   0.752E-03    0.565E-03
RMM:   8    -0.934653303070E+03    0.63517E-05   -0.79014E-06   464   0.348E-03
   14 T=   297. E= -.92717042E+03 F= -.93465210E+03 E0= -.93465210E+03  EK= 0.74817E+01 SP= 0.00E+00 SK= 0.00E+00
       N       E                     dE             d eps       ncg     rms          rms(c)
RMM:   1    -0.934417934861E+03    0.23537E+00   -0.31579E+00   720   0.337E+00    0.905E-01
RMM:   2    -0.934406286695E+03    0.11648E-01   -0.49747E-02   720   0.346E-01    0.403E-01
RMM:   3    -0.934405412977E+03    0.87372E-03   -0.63169E-03   720   0.115E-01    0.184E-01
RMM:   4    -0.934405244378E+03    0.16860E-03   -0.18132E-03   720   0.659E-02    0.583E-02
RMM:   5    -0.934405191273E+03    0.53105E-04   -0.24265E-04   720   0.230E-02    0.167E-02
RMM:   6    -0.934405190047E+03    0.12258E-05   -0.73396E-05   659   0.117E-02
   15 T=   285. E= -.92722393E+03 F= -.93440399E+03 E0= -.93440399E+03  EK= 0.71801E+01 SP= 0.00E+00 SK= 0.00E+00
       N       E                     dE             d eps       ncg     rms          rms(c)
RMM:   1    -0.934455715956E+03   -0.50525E-01   -0.32435E+00   720   0.339E+00    0.125E+00
RMM:   2    -0.934429628598E+03    0.26087E-01   -0.92963E-02   720   0.461E-01    0.440E-01
RMM:   3    -0.934428661213E+03    0.96738E-03   -0.87120E-03   720   0.135E-01    0.211E-01
RMM:   4    -0.934428378882E+03    0.28233E-03   -0.25256E-03   720   0.787E-02    0.726E-02
RMM:   5    -0.934428276944E+03    0.10194E-03   -0.41602E-04   720   0.303E-02    0.180E-02
RMM:   6    -0.934428272098E+03    0.48460E-05   -0.86518E-05   661   0.128E-02
   16 T=   285. E= -.92725247E+03 F= -.93442707E+03 E0= -.93442707E+03  EK= 0.71746E+01 SP= 0.00E+00 SK= 0.00E+00
       N       E                     dE             d eps       ncg     rms          rms(c)
RMM:   1    -0.934632337683E+03   -0.20406E+00   -0.30160E+00   720   0.326E+00    0.147E+00
RMM:   2    -0.934593892001E+03    0.38446E-01   -0.13241E-01   720   0.544E-01    0.451E-01
RMM:   3    -0.934592809443E+03    0.10826E-02   -0.99088E-03   720   0.144E-01    0.219E-01
RMM:   4    -0.934592423787E+03    0.38566E-03   -0.24130E-03   720   0.788E-02    0.700E-02
RMM:   5    -0.934592333455E+03    0.90332E-04   -0.37688E-04   720   0.289E-02    0.177E-02
RMM:   6    -0.934592329344E+03    0.41113E-05   -0.75579E-05   658   0.120E-02
   17 T=   288. E= -.92734249E+03 F= -.93459113E+03 E0= -.93459113E+03  EK= 0.72486E+01 SP= 0.00E+00 SK= 0.00E+00
       N       E                     dE             d eps       ncg     rms          rms(c)
RMM:   1    -0.934636966204E+03   -0.44633E-01   -0.34116E+00   720   0.346E+00    0.166E+00
RMM:   2    -0.934584848060E+03    0.52118E-01   -0.17303E-01   720   0.628E-01    0.487E-01
RMM:   3    -0.934583509009E+03    0.13391E-02   -0.12528E-02   720   0.161E-01    0.240E-01
RMM:   4    -0.934583047754E+03    0.46126E-03   -0.31307E-03   720   0.889E-02    0.779E-02
RMM:   5    -0.934582928237E+03    0.11952E-03   -0.53783E-04   720   0.344E-02    0.189E-02
RMM:   6    -0.934582920684E+03    0.75533E-05   -0.63789E-05   657   0.111E-02
   18 T=   284. E= -.92743155E+03 F= -.93458173E+03 E0= -.93458173E+03  EK= 0.71502E+01 SP= 0.00E+00 SK= 0.00E+00
       N       E                     dE             d eps       ncg     rms          rms(c)
RMM:   1    -0.934589469586E+03   -0.65413E-02   -0.42856E+00   720   0.383E+00    0.159E+00
RMM:   2    -0.934542271424E+03    0.47198E-01   -0.15356E-01   720   0.601E-01    0.528E-01
RMM:   3    -0.934540575258E+03    0.16962E-02   -0.13904E-02   720   0.170E-01    0.258E-01
RMM:   4    -0.934540169931E+03    0.40533E-03   -0.36193E-03   720   0.950E-02    0.846E-02
RMM:   5    -0.934540042949E+03    0.12698E-03   -0.58049E-04   720   0.357E-02    0.194E-02
RMM:   6    -0.934540043260E+03   -0.31089E-06   -0.84092E-05   659   0.128E-02
   19 T=   283. E= -.92741246E+03 F= -.93453885E+03 E0= -.93453885E+03  EK= 0.71264E+01 SP= 0.00E+00 SK= 0.00E+00
       N       E                     dE             d eps       ncg     rms          rms(c)
RMM:   1    -0.934817329571E+03   -0.27729E+00   -0.45349E+00   720   0.395E+00    0.132E+00
RMM:   2    -0.934786570999E+03    0.30759E-01   -0.10382E-01   720   0.508E-01    0.510E-01
RMM:   3    -0.934785005851E+03    0.15651E-02   -0.11816E-02   720   0.159E-01    0.245E-01
RMM:   4    -0.934784682002E+03    0.32385E-03   -0.33018E-03   720   0.876E-02    0.849E-02
RMM:   5    -0.934784556447E+03    0.12556E-03   -0.50486E-04   720   0.339E-02    0.205E-02
RMM:   6    -0.934784552626E+03    0.38212E-05   -0.12395E-04   687   0.156E-02    0.196E-02
RMM:   7    -0.934784541258E+03    0.11368E-04   -0.44765E-05   626   0.974E-03    0.455E-03
RMM:   8    -0.934784538079E+03    0.31784E-05   -0.52635E-06   463   0.334E-03
   20 T=   293. E= -.92740130E+03 F= -.93478335E+03 E0= -.93478335E+03  EK= 0.73821E+01 SP= 0.00E+00 SK= 0.00E+00
       N       E                     dE             d eps       ncg     rms          rms(c)
RMM:   1    -0.935168093542E+03   -0.38355E+00   -0.44319E+00   720   0.397E+00    0.108E+00
RMM:   2    -0.935149147099E+03    0.18946E-01   -0.69747E-02   720   0.418E-01    0.484E-01
RMM:   3    -0.935147740707E+03    0.14064E-02   -0.94157E-03   720   0.142E-01    0.226E-01
RMM:   4    -0.935147534440E+03    0.20627E-03   -0.26566E-03   720   0.776E-02    0.747E-02
RMM:   5    -0.935147448566E+03    0.85874E-04   -0.38136E-04   720   0.292E-02    0.190E-02
RMM:   6    -0.935147446616E+03    0.19503E-05   -0.94655E-05   665   0.135E-02
   21 T=   308. E= -.92738436E+03 F= -.93514626E+03 E0= -.93514626E+03  EK= 0.77619E+01 SP= 0.00E+00 SK= 0.00E+00
       N       E                     dE             d eps       ncg     rms          rms(c)
RMM:   1    -0.935147965895E+03   -0.51733E-03   -0.41595E+00   720   0.385E+00    0.945E-01
RMM:   2    -0.935135517022E+03    0.12449E-01   -0.53217E-02   720   0.369E-01    0.459E-01
RMM:   3    -0.935134292220E+03    0.12248E-02   -0.79391E-03   720   0.132E-01    0.204E-01
RMM:   4    -0.935134108921E+03    0.18330E-03   -0.22077E-03   720   0.692E-02    0.684E-02
RMM:   5    -0.935134035676E+03    0.73245E-04   -0.30631E-04   720   0.263E-02    0.193E-02
RMM:   6    -0.935134024391E+03    0.11285E-04   -0.98613E-05   669   0.135E-02    0.177E-02
RMM:   7    -0.935134013435E+03    0.10957E-04   -0.47804E-05   610   0.956E-03    0.609E-03
RMM:   8    -0.935134008963E+03    0.44721E-05   -0.67831E-06   463   0.362E-03
   22 T=   311. E= -.92728772E+03 F= -.93513283E+03 E0= -.93513283E+03  EK= 0.78451E+01 SP= 0.00E+00 SK= 0.00E+00
       N       E                     dE             d eps       ncg     rms          rms(c)
RMM:   1    -0.935104120178E+03    0.29893E-01   -0.46492E+00   720   0.402E+00    0.996E-01
RMM:   2    -0.935089869209E+03    0.14251E-01   -0.58217E-02   720   0.380E-01    0.482E-01
RMM:   3    -0.935088513049E+03    0.13562E-02   -0.88858E-03   720   0.137E-01    0.213E-01
RMM:   4    -0.935088329270E+03    0.18378E-03   -0.23929E-03   720   0.719E-02    0.722E-02
RMM:   5    -0.935088253733E+03    0.75538E-04   -0.33947E-04   720   0.274E-02    0.190E-02
RMM:   6    -0.935088246442E+03    0.72911E-05   -0.94221E-05   666   0.132E-02
   23 T=   308. E= -.92733087E+03 F= -.93508707E+03 E0= -.93508707E+03  EK= 0.77562E+01 SP= 0.00E+00 SK= 0.00E+00
       N       E                     dE             d eps       ncg     rms          rms(c)
RMM:   1    -0.935106666316E+03   -0.18413E-01   -0.35502E+00   720   0.356E+00    0.961E-01
RMM:   2    -0.935092529528E+03    0.14137E-01   -0.57694E-02   720   0.376E-01    0.405E-01
RMM:   3    -0.935091810936E+03    0.71859E-03   -0.62660E-03   720   0.116E-01    0.195E-01
RMM:   4    -0.935091670526E+03    0.14041E-03   -0.18593E-03   720   0.662E-02    0.614E-02
RMM:   5    -0.935091614950E+03    0.55576E-04   -0.25878E-04   720   0.240E-02    0.167E-02
RMM:   6    -0.935091609488E+03    0.54623E-05   -0.64291E-05   655   0.112E-02
   24 T=   305. E= -.92740872E+03 F= -.93509043E+03 E0= -.93509043E+03  EK= 0.76817E+01 SP= 0.00E+00 SK= 0.00E+00
       N       E                     dE             d eps       ncg     rms          rms(c)
RMM:   1    -0.935340340577E+03   -0.24873E+00   -0.36210E+00   720   0.359E+00    0.130E+00
RMM:   2    -0.935311214513E+03    0.29126E-01   -0.10135E-01   720   0.484E-01    0.450E-01
RMM:   3    -0.935310211466E+03    0.10030E-02   -0.99475E-03   720   0.143E-01    0.215E-01
RMM:   4    -0.935309937068E+03    0.27440E-03   -0.27134E-03   720   0.813E-02    0.779E-02
RMM:   5    -0.935309823216E+03    0.11385E-03   -0.47598E-04   720   0.323E-02    0.182E-02
RMM:   6    -0.935309814779E+03    0.84372E-05   -0.84639E-05   660   0.126E-02
   25 T=   314. E= -.92740273E+03 F= -.93530864E+03 E0= -.93530864E+03  EK= 0.79059E+01 SP= 0.00E+00 SK= 0.00E+00
       N       E                     dE             d eps       ncg     rms          rms(c)
RMM:   1    -0.935535559513E+03   -0.22574E+00   -0.32926E+00   720   0.342E+00    0.152E+00
RMM:   2    -0.935493728966E+03    0.41831E-01   -0.14432E-01   720   0.568E-01    0.449E-01
RMM:   3    -0.935492743350E+03    0.98562E-03   -0.10712E-02   720   0.149E-01    0.217E-01
RMM:   4    -0.935492370136E+03    0.37321E-03   -0.25810E-03   720   0.811E-02    0.731E-02
RMM:   5    -0.935492268747E+03    0.10139E-03   -0.44768E-04   720   0.315E-02    0.177E-02
RMM:   6    -0.935492262410E+03    0.63369E-05   -0.66316E-05   657   0.112E-02
   26 T=   326. E= -.92727029E+03 F= -.93549109E+03 E0= -.93549109E+03  EK= 0.82208E+01 SP= 0.00E+00 SK= 0.00E+00
       N       E                     dE             d eps       ncg     rms          rms(c)
RMM:   1    -0.935673465383E+03   -0.18120E+00   -0.37666E+00   720   0.361E+00    0.178E+00
RMM:   2    -0.935613541933E+03    0.59923E-01   -0.19510E-01   720   0.669E-01    0.502E-01
RMM:   3    -0.935612261404E+03    0.12805E-02   -0.14585E-02   720   0.173E-01    0.244E-01
RMM:   4    -0.935611832250E+03    0.42915E-03   -0.34346E-03   720   0.936E-02    0.852E-02
RMM:   5    -0.935611695989E+03    0.13626E-03   -0.62729E-04   720   0.373E-02    0.187E-02
RMM:   6    -0.935611694965E+03    0.10239E-05   -0.69658E-05   657   0.119E-02
   27 T=   333. E= -.92721986E+03 F= -.93561052E+03 E0= -.93561052E+03  EK= 0.83907E+01 SP= 0.00E+00 SK= 0.00E+00
       N       E                     dE             d eps       ncg     rms          rms(c)
RMM:   1    -0.935873317228E+03   -0.26162E+00   -0.42737E+00   720   0.383E+00    0.181E+00
RMM:   2    -0.935810337963E+03    0.62979E-01   -0.20289E-01   720   0.683E-01    0.523E-01
RMM:   3    -0.935808821693E+03    0.15163E-02   -0.15915E-02   720   0.181E-01    0.255E-01
RMM:   4    -0.935808303450E+03    0.51824E-03   -0.36473E-03   720   0.959E-02    0.880E-02
RMM:   5    -0.935808150149E+03    0.15330E-03   -0.64598E-04   720   0.376E-02    0.196E-02
RMM:   6    -0.935808140404E+03    0.97459E-05   -0.85545E-05   660   0.128E-02
   28 T=   337. E= -.92731033E+03 F= -.93580697E+03 E0= -.93580697E+03  EK= 0.84966E+01 SP= 0.00E+00 SK= 0.00E+00
       N       E                     dE             d eps       ncg     rms          rms(c)
RMM:   1    -0.936056705656E+03   -0.24856E+00   -0.41281E+00   720   0.381E+00    0.174E+00
RMM:   2    -0.935998725443E+03    0.57980E-01   -0.18721E-01   720   0.662E-01    0.511E-01
RMM:   3    -0.935997203626E+03    0.15218E-02   -0.14979E-02   720   0.177E-01    0.248E-01
RMM:   4    -0.935996727221E+03    0.47641E-03   -0.34001E-03   720   0.920E-02    0.829E-02
RMM:   5    -0.935996591151E+03    0.13607E-03   -0.56976E-04   720   0.355E-02    0.197E-02
RMM:   6    -0.935996573458E+03    0.17693E-04   -0.87008E-05   658   0.129E-02    0.157E-02
RMM:   7    -0.935996560995E+03    0.12463E-04   -0.40067E-05   613   0.919E-03    0.618E-03
RMM:   8    -0.935996553757E+03    0.72378E-05   -0.10617E-05   464   0.435E-03
   29 T=   348. E= -.92723135E+03 F= -.93599539E+03 E0= -.93599539E+03  EK= 0.87640E+01 SP= 0.00E+00 SK= 0.00E+00
       N       E                     dE             d eps       ncg     rms          rms(c)
RMM:   1    -0.936045751646E+03   -0.49191E-01   -0.44430E+00   720   0.394E+00    0.158E+00
RMM:   2    -0.935999848254E+03    0.45903E-01   -0.15286E-01   720   0.601E-01    0.547E-01
RMM:   3    -0.935998015843E+03    0.18324E-02   -0.14164E-02   720   0.173E-01    0.267E-01
RMM:   4    -0.935997537096E+03    0.47875E-03   -0.36069E-03   720   0.939E-02    0.854E-02
RMM:   5    -0.935997402725E+03    0.13437E-03   -0.52741E-04   720   0.344E-02    0.210E-02
RMM:   6    -0.935997396685E+03    0.60396E-05   -0.11559E-04   684   0.150E-02    0.187E-02
RMM:   7    -0.935997386010E+03    0.10675E-04   -0.47525E-05   640   0.101E-02    0.546E-03
RMM:   8    -0.935997382189E+03    0.38214E-05   -0.62376E-06   464   0.359E-03
   30 T=   356. E= -.92702960E+03 F= -.93599622E+03 E0= -.93599622E+03  EK= 0.89666E+01 SP= 0.00E+00 SK= 0.00E+00
       N       E                     dE             d eps       ncg     rms          rms(c)
RMM:   1    -0.935806413509E+03    0.19097E+00   -0.38755E+00   720   0.368E+00    0.139E+00
RMM:   2    -0.935772978801E+03    0.33435E-01   -0.11596E-01   720   0.525E-01    0.496E-01
RMM:   3    -0.935771643648E+03    0.13352E-02   -0.11123E-02   720   0.154E-01    0.240E-01
RMM:   4    -0.935771324751E+03    0.31890E-03   -0.27857E-03   720   0.830E-02    0.753E-02
RMM:   5    -0.935771231019E+03    0.93732E-04   -0.39350E-04   720   0.299E-02    0.183E-02
RMM:   6    -0.935771230840E+03    0.17910E-06   -0.87660E-05   664   0.132E-02
   31 T=   354. E= -.92684657E+03 F= -.93577008E+03 E0= -.93577008E+03  EK= 0.89235E+01 SP= 0.00E+00 SK= 0.00E+00
       N       E                     dE             d eps       ncg     rms          rms(c)
RMM:   1    -0.935522522082E+03    0.24871E+00   -0.45959E+00   720   0.401E+00    0.120E+00
RMM:   2    -0.935499466827E+03    0.23055E-01   -0.81216E-02   720   0.448E-01    0.513E-01
RMM:   3    -0.935497762946E+03    0.17039E-02   -0.10370E-02   720   0.149E-01    0.238E-01
RMM:   4    -0.935497443790E+03    0.31916E-03   -0.29092E-03   720   0.813E-02    0.769E-02
RMM:   5    -0.935497350583E+03    0.93207E-04   -0.39964E-04   720   0.299E-02    0.206E-02
RMM:   6    -0.935497342979E+03    0.76044E-05   -0.10682E-04   671   0.142E-02    0.180E-02
RMM:   7    -0.935497332962E+03    0.10017E-04   -0.40557E-05   594   0.909E-03    0.506E-03
RMM:   8    -0.935497329706E+03    0.32556E-05   -0.62508E-06   463   0.355E-03
   32 T=   351. E= -.92665371E+03 F= -.93549618E+03 E0= -.93549618E+03  EK= 0.88425E+01 SP= 0.00E+00 SK= 0.00E+00
       N       E                     dE             d eps       ncg     rms          rms(c)
RMM:   1    -0.935373665829E+03    0.12367E+00   -0.40476E+00   720   0.381E+00    0.114E+00
RMM:   2    -0.935354129076E+03    0.19537E-01   -0.75382E-02   720   0.425E-01    0.495E-01
RMM:   3    -0.935352610902E+03    0.15182E-02   -0.88979E-03   720   0.139E-01    0.229E-01
RMM:   4    -0.935352293606E+03    0.31730E-03   -0.24803E-03   720   0.774E-02    0.683E-02
RMM:   5    -0.935352213636E+03    0.79970E-04   -0.31577E-04   720   0.269E-02    0.195E-02
RMM:   6    -0.935352202488E+03    0.11148E-04   -0.92681E-05   668   0.133E-02    0.167E-02
RMM:   7    -0.935352192266E+03    0.10223E-04   -0.37166E-05   596   0.878E-03    0.517E-03
RMM:   8    -0.935352187933E+03    0.43323E-05   -0.71506E-06   463   0.366E-03
   33 T=   350. E= -.92652915E+03 F= -.93535104E+03 E0= -.93535104E+03  EK= 0.88219E+01 SP= 0.00E+00 SK= 0.00E+00
       N       E                     dE             d eps       ncg     rms          rms(c)
RMM:   1    -0.935256443599E+03    0.95749E-01   -0.42419E+00   720   0.388E+00    0.133E+00
RMM:   2    -0.935226570773E+03    0.29873E-01   -0.10362E-01   720   0.497E-01    0.497E-01
RMM:   3    -0.935225043059E+03    0.15277E-02   -0.10934E-02   720   0.153E-01    0.238E-01
RMM:   4    -0.935224619383E+03    0.42368E-03   -0.29772E-03   720   0.840E-02    0.789E-02
RMM:   5    -0.935224505818E+03    0.11357E-03   -0.41809E-04   720   0.307E-02    0.208E-02
RMM:   6    -0.935224492897E+03    0.12920E-04   -0.13121E-04   697   0.159E-02    0.201E-02
RMM:   7    -0.935224478260E+03    0.14638E-04   -0.51852E-05   647   0.103E-02    0.549E-03
RMM:   8    -0.935224472966E+03    0.52941E-05   -0.85981E-06   464   0.401E-03
   34 T=   347. E= -.92646989E+03 F= -.93522333E+03 E0= -.93522333E+03  EK= 0.87534E+01 SP= 0.00E+00 SK= 0.00E+00
       N       E                     dE             d eps       ncg     rms          rms(c)
RMM:   1    -0.935034899780E+03    0.18958E+00   -0.34617E+00   720   0.354E+00    0.125E+00
RMM:   2    -0.935008844846E+03    0.26055E-01   -0.97972E-02   720   0.476E-01    0.443E-01
RMM:   3    -0.935007817179E+03    0.10277E-02   -0.84117E-03   720   0.134E-01    0.215E-01
RMM:   4    -0.935007545046E+03    0.27213E-03   -0.23304E-03   720   0.758E-02    0.675E-02
RMM:   5    -0.935007472657E+03    0.72390E-04   -0.34023E-04   720   0.277E-02    0.176E-02
RMM:   6    -0.935007472134E+03    0.52246E-06   -0.66428E-05   657   0.114E-02
   35 T=   338. E= -.92649653E+03 F= -.93500633E+03 E0= -.93500633E+03  EK= 0.85098E+01 SP= 0.00E+00 SK= 0.00E+00
       N       E                     dE             d eps       ncg     rms          rms(c)
RMM:   1    -0.934889160317E+03    0.11831E+00   -0.33810E+00   720   0.348E+00    0.141E+00
RMM:   2    -0.934853777497E+03    0.35383E-01   -0.12075E-01   720   0.528E-01    0.456E-01
RMM:   3    -0.934852671874E+03    0.11056E-02   -0.99892E-03   720   0.145E-01    0.221E-01
RMM:   4    -0.934852343572E+03    0.32830E-03   -0.26216E-03   720   0.818E-02    0.725E-02
RMM:   5    -0.934852247299E+03    0.96273E-04   -0.43761E-04   720   0.311E-02    0.179E-02
RMM:   6    -0.934852245083E+03    0.22163E-05   -0.65124E-05   657   0.113E-02
   36 T=   329. E= -.92655225E+03 F= -.93485110E+03 E0= -.93485110E+03  EK= 0.82989E+01 SP= 0.00E+00 SK= 0.00E+00
       N       E                     dE             d eps       ncg     rms          rms(c)
RMM:   1    -0.934953615005E+03   -0.10137E+00   -0.39429E+00   720   0.374E+00    0.155E+00
RMM:   2    -0.934909789714E+03    0.43825E-01   -0.14458E-01   720   0.583E-01    0.503E-01
RMM:   3    -0.934908429037E+03    0.13607E-02   -0.11842E-02   720   0.159E-01    0.246E-01
RMM:   4    -0.934908056646E+03    0.37239E-03   -0.32414E-03   720   0.896E-02    0.814E-02
RMM:   5    -0.934907929134E+03    0.12751E-03   -0.55923E-04   720   0.353E-02    0.192E-02
RMM:   6    -0.934907923879E+03    0.52552E-05   -0.75484E-05   656   0.121E-02
   37 T=   331. E= -.92655427E+03 F= -.93490678E+03 E0= -.93490678E+03  EK= 0.83525E+01 SP= 0.00E+00 SK= 0.00E+00
       N       E                     dE             d eps       ncg     rms          rms(c)
RMM:   1    -0.935033261558E+03   -0.12533E+00   -0.40475E+00   720   0.376E+00    0.143E+00
RMM:   2    -0.934996243850E+03    0.37018E-01   -0.12457E-01   720   0.544E-01    0.481E-01
RMM:   3    -0.934994851694E+03    0.13922E-02   -0.11552E-02   720   0.156E-01    0.233E-01
RMM:   4    -0.934994444981E+03    0.40671E-03   -0.31534E-03   720   0.874E-02    0.803E-02
RMM:   5    -0.934994308290E+03    0.13669E-03   -0.51976E-04   720   0.339E-02    0.199E-02
RMM:   6    -0.934994288685E+03    0.19605E-04   -0.10867E-04   670   0.142E-02    0.185E-02
RMM:   7    -0.934994273552E+03    0.15132E-04   -0.49894E-05   641   0.100E-02    0.600E-03
RMM:   8    -0.934994267075E+03    0.64779E-05   -0.10752E-05   464   0.429E-03
   38 T=   335. E= -.92654676E+03 F= -.93499313E+03 E0= -.93499313E+03  EK= 0.84464E+01 SP= 0.00E+00 SK= 0.00E+00
       N       E                     dE             d eps       ncg     rms          rms(c)
RMM:   1    -0.935010170600E+03   -0.15897E-01   -0.38574E+00   720   0.371E+00    0.130E+00
RMM:   2    -0.934981831491E+03    0.28339E-01   -0.10024E-01   720   0.492E-01    0.496E-01
RMM:   3    -0.934980380658E+03    0.14508E-02   -0.10147E-02   720   0.148E-01    0.238E-01
RMM:   4    -0.934980062950E+03    0.31771E-03   -0.27628E-03   720   0.827E-02    0.724E-02
RMM:   5    -0.934979976450E+03    0.86500E-04   -0.38971E-04   720   0.299E-02    0.188E-02
RMM:   6    -0.934979972596E+03    0.38536E-05   -0.79088E-05   657   0.125E-02
   39 T=   336. E= -.92651733E+03 F= -.93497884E+03 E0= -.93497884E+03  EK= 0.84615E+01 SP= 0.00E+00 SK= 0.00E+00
       N       E                     dE             d eps       ncg     rms          rms(c)
RMM:   1    -0.935061204260E+03   -0.81228E-01   -0.43352E+00   720   0.394E+00    0.123E+00
RMM:   2    -0.935035240376E+03    0.25964E-01   -0.87842E-02   720   0.468E-01    0.498E-01
RMM:   3    -0.935033779467E+03    0.14609E-02   -0.10485E-02   720   0.150E-01    0.238E-01
RMM:   4    -0.935033500901E+03    0.27857E-03   -0.31272E-03   720   0.867E-02    0.810E-02
RMM:   5    -0.935033381618E+03    0.11928E-03   -0.50060E-04   720   0.335E-02    0.197E-02
RMM:   6    -0.935033377379E+03    0.42394E-05   -0.92359E-05   661   0.135E-02
   40 T=   338. E= -.92652421E+03 F= -.93503225E+03 E0= -.93503225E+03  EK= 0.85080E+01 SP= 0.00E+00 SK= 0.00E+00
       N       E                     dE             d eps       ncg     rms          rms(c)
RMM:   1    -0.934998740393E+03    0.34641E-01   -0.37380E+00   720   0.365E+00    0.103E+00
RMM:   2    -0.934982013996E+03    0.16726E-01   -0.61924E-02   720   0.399E-01    0.446E-01
RMM:   3    -0.934980774239E+03    0.12398E-02   -0.79212E-03   720   0.132E-01    0.208E-01
RMM:   4    -0.934980524327E+03    0.24991E-03   -0.23951E-03   720   0.743E-02    0.688E-02
RMM:   5    -0.934980436695E+03    0.87632E-04   -0.36854E-04   720   0.286E-02    0.189E-02
RMM:   6    -0.934980425043E+03    0.11652E-04   -0.87063E-05   662   0.129E-02    0.173E-02
RMM:   7    -0.934980414728E+03    0.10315E-04   -0.49229E-05   641   0.990E-03    0.645E-03
RMM:   8    -0.934980411033E+03    0.36951E-05   -0.66970E-06   463   0.380E-03
   41 T=   334. E= -.92656372E+03 F= -.93497928E+03 E0= -.93497928E+03  EK= 0.84156E+01 SP= 0.00E+00 SK= 0.00E+00
       N       E                     dE             d eps       ncg     rms          rms(c)
RMM:   1    -0.935075618133E+03   -0.95203E-01   -0.48705E+00   720   0.415E+00    0.108E+00
RMM:   2    -0.935057152501E+03    0.18466E-01   -0.63835E-02   720   0.402E-01    0.520E-01
RMM:   3    -0.935055157668E+03    0.19948E-02   -0.10222E-02   720   0.147E-01    0.228E-01
RMM:   4    -0.935054813651E+03    0.34402E-03   -0.26661E-03   720   0.763E-02    0.759E-02
RMM:   5    -0.935054722049E+03    0.91602E-04   -0.36626E-04   720   0.285E-02    0.214E-02
RMM:   6    -0.935054703050E+03    0.18998E-04   -0.11733E-04   665   0.147E-02    0.184E-02
RMM:   7    -0.935054689606E+03    0.13445E-04   -0.54815E-05   618   0.101E-02    0.719E-03
RMM:   8    -0.935054683110E+03    0.64962E-05   -0.10723E-05   466   0.447E-03
   42 T=   335. E= -.92659795E+03 F= -.93505356E+03 E0= -.93505356E+03  EK= 0.84556E+01 SP= 0.00E+00 SK= 0.00E+00
       N       E                     dE             d eps       ncg     rms          rms(c)
RMM:   1    -0.935201911874E+03   -0.14722E+00   -0.36521E+00   720   0.363E+00    0.828E-01
RMM:   2    -0.935193841837E+03    0.80700E-02   -0.41473E-02   720   0.327E-01    0.434E-01
RMM:   3    -0.935192731882E+03    0.11100E-02   -0.61463E-03   720   0.119E-01    0.179E-01
RMM:   4    -0.935192585334E+03    0.14655E-03   -0.14126E-03   720   0.575E-02    0.498E-02
RMM:   5    -0.935192558793E+03    0.26542E-04   -0.13190E-04   718   0.180E-02    0.177E-02
RMM:   6    -0.935192551815E+03    0.69774E-05   -0.69595E-05   653   0.115E-02
   43 T=   341. E= -.92660131E+03 F= -.93519143E+03 E0= -.93519143E+03  EK= 0.85901E+01 SP= 0.00E+00 SK= 0.00E+00
       N       E                     dE             d eps       ncg     rms          rms(c)
RMM:   1    -0.935067613441E+03    0.12495E+00   -0.38291E+00   720   0.372E+00    0.843E-01
RMM:   2    -0.935057466600E+03    0.10147E-01   -0.44408E-02   720   0.338E-01    0.419E-01
RMM:   3    -0.935056231537E+03    0.12351E-02   -0.67533E-03   720   0.120E-01    0.186E-01
RMM:   4    -0.935055989263E+03    0.24227E-03   -0.19459E-03   720   0.647E-02    0.623E-02
RMM:   5    -0.935055912185E+03    0.77078E-04   -0.27450E-04   719   0.237E-02    0.200E-02
RMM:   6    -0.935055889530E+03    0.22656E-04   -0.10202E-04   661   0.133E-02    0.175E-02
RMM:   7    -0.935055875566E+03    0.13963E-04   -0.53042E-05   619   0.997E-03    0.703E-03
RMM:   8    -0.935055869458E+03    0.61083E-05   -0.10513E-05   465   0.430E-03
   44 T=   336. E= -.92658808E+03 F= -.93505475E+03 E0= -.93505475E+03  EK= 0.84667E+01 SP= 0.00E+00 SK= 0.00E+00
       N       E                     dE             d eps       ncg     rms          rms(c)
RMM:   1    -0.934942279317E+03    0.11360E+00   -0.40491E+00   720   0.379E+00    0.894E-01
RMM:   2    -0.934931454528E+03    0.10825E-01   -0.48825E-02   720   0.356E-01    0.449E-01
RMM:   3    -0.934930115611E+03    0.13389E-02   -0.65857E-03   720   0.121E-01    0.198E-01
RMM:   4    -0.934929913809E+03    0.20180E-03   -0.17850E-03   720   0.634E-02    0.558E-02
RMM:   5    -0.934929873482E+03    0.40327E-04   -0.20049E-04   720   0.213E-02    0.195E-02
RMM:   6    -0.934929863192E+03    0.10290E-04   -0.69823E-05   656   0.117E-02    0.138E-02
RMM:   7    -0.934929856443E+03    0.67493E-05   -0.27290E-05   518   0.750E-03
   45 T=   330. E= -.92659953E+03 F= -.93492873E+03 E0= -.93492873E+03  EK= 0.83292E+01 SP= 0.00E+00 SK= 0.00E+00
       N       E                     dE             d eps       ncg     rms          rms(c)
RMM:   1    -0.935198190445E+03   -0.26833E+00   -0.36212E+00   720   0.359E+00    0.889E-01
RMM:   2    -0.935186430021E+03    0.11760E-01   -0.49955E-02   720   0.357E-01    0.411E-01
RMM:   3    -0.935185449188E+03    0.98083E-03   -0.60910E-03   720   0.115E-01    0.192E-01
RMM:   4    -0.935185288217E+03    0.16097E-03   -0.18756E-03   720   0.645E-02    0.597E-02
RMM:   5    -0.935185231648E+03    0.56569E-04   -0.27048E-04   719   0.243E-02    0.181E-02
RMM:   6    -0.935185223172E+03    0.84763E-05   -0.61939E-05   646   0.109E-02
   46 T=   334. E= -.92676595E+03 F= -.93518410E+03 E0= -.93518410E+03  EK= 0.84181E+01 SP= 0.00E+00 SK= 0.00E+00
       N       E                     dE             d eps       ncg     rms          rms(c)
RMM:   1    -0.935564396746E+03   -0.37917E+00   -0.37550E+00   720   0.369E+00    0.880E-01
RMM:   2    -0.935553455243E+03    0.10942E-01   -0.46612E-02   720   0.346E-01    0.432E-01
RMM:   3    -0.935552276339E+03    0.11789E-02   -0.65805E-03   720   0.119E-01    0.194E-01
RMM:   4    -0.935552088829E+03    0.18751E-03   -0.18204E-03   720   0.649E-02    0.588E-02
RMM:   5    -0.935552031095E+03    0.57734E-04   -0.24078E-04   720   0.230E-02    0.192E-02
RMM:   6    -0.935552014768E+03    0.16327E-04   -0.79248E-05   657   0.120E-02    0.151E-02
RMM:   7    -0.935552005238E+03    0.95304E-05   -0.37838E-05   594   0.873E-03
   47 T=   341. E= -.92694986E+03 F= -.93555088E+03 E0= -.93555088E+03  EK= 0.86010E+01 SP= 0.00E+00 SK= 0.00E+00
       N       E                     dE             d eps       ncg     rms          rms(c)
RMM:   1    -0.935515965727E+03    0.36049E-01   -0.35860E+00   720   0.359E+00    0.756E-01
RMM:   2    -0.935509018021E+03    0.69477E-02   -0.37534E-02   720   0.310E-01    0.402E-01
RMM:   3    -0.935507816109E+03    0.12019E-02   -0.57078E-03   720   0.111E-01    0.167E-01
RMM:   4    -0.935507628523E+03    0.18759E-03   -0.13103E-03   720   0.535E-02    0.481E-02
RMM:   5    -0.935507593168E+03    0.35355E-04   -0.14230E-04   717   0.178E-02    0.188E-02
RMM:   6    -0.935507574802E+03    0.18367E-04   -0.71316E-05   655   0.114E-02    0.129E-02
RMM:   7    -0.935507567500E+03    0.73016E-05   -0.32898E-05   553   0.797E-03
   48 T=   336. E= -.92702988E+03 F= -.93550645E+03 E0= -.93550645E+03  EK= 0.84766E+01 SP= 0.00E+00 SK= 0.00E+00
       N       E                     dE             d eps       ncg     rms          rms(c)
RMM:   1    -0.935499635100E+03    0.79397E-02   -0.40821E+00   720   0.384E+00    0.896E-01
RMM:   2    -0.935489022316E+03    0.10613E-01   -0.46515E-02   720   0.350E-01    0.462E-01
RMM:   3    -0.935487689203E+03    0.13331E-02   -0.70416E-03   720   0.126E-01    0.199E-01
RMM:   4    -0.935487486820E+03    0.20238E-03   -0.17790E-03   720   0.629E-02    0.584E-02
RMM:   5    -0.935487436082E+03    0.50738E-04   -0.21659E-04   719   0.225E-02    0.192E-02
RMM:   6    -0.935487419817E+03    0.16266E-04   -0.69412E-05   650   0.114E-02    0.129E-02
RMM:   7    -0.935487412205E+03    0.76115E-05   -0.28501E-05   536   0.753E-03
   49 T=   332. E= -.92711601E+03 F= -.93548629E+03 E0= -.93548629E+03  EK= 0.83703E+01 SP= 0.00E+00 SK= 0.00E+00
       N       E                     dE             d eps       ncg     rms          rms(c)
RMM:   1    -0.935742352426E+03   -0.25493E+00   -0.36437E+00   720   0.364E+00    0.813E-01
RMM:   2    -0.935733759207E+03    0.85932E-02   -0.39138E-02   720   0.323E-01    0.423E-01
RMM:   3    -0.935732681318E+03    0.10779E-02   -0.63403E-03   720   0.119E-01    0.179E-01
RMM:   4    -0.935732520306E+03    0.16101E-03   -0.16293E-03   720   0.592E-02    0.562E-02
RMM:   5    -0.935732474877E+03    0.45429E-04   -0.20117E-04   720   0.213E-02    0.185E-02
RMM:   6    -0.935732461507E+03    0.13369E-04   -0.70160E-05   649   0.115E-02    0.135E-02
RMM:   7    -0.935732454148E+03    0.73591E-05   -0.34390E-05   551   0.814E-03
   50 T=   339. E= -.92719363E+03 F= -.93573133E+03 E0= -.93573133E+03  EK= 0.85377E+01 SP= 0.00E+00 SK= 0.00E+00
       N       E                     dE             d eps       ncg     rms          rms(c)
RMM:   1    -0.935745434081E+03   -0.12973E-01   -0.37981E+00   720   0.368E+00    0.828E-01
RMM:   2    -0.935737089227E+03    0.83449E-02   -0.39261E-02   720   0.324E-01    0.437E-01
RMM:   3    -0.935736012783E+03    0.10764E-02   -0.66719E-03   720   0.124E-01    0.178E-01
RMM:   4    -0.935735853509E+03    0.15927E-03   -0.15148E-03   720   0.572E-02    0.579E-02
RMM:   5    -0.935735812647E+03    0.40861E-04   -0.18411E-04   720   0.210E-02    0.180E-02
RMM:   6    -0.935735799379E+03    0.13269E-04   -0.70709E-05   654   0.114E-02    0.135E-02
RMM:   7    -0.935735791717E+03    0.76614E-05   -0.34341E-05   558   0.808E-03
   51 T=   335. E= -.92728207E+03 F= -.93573467E+03 E0= -.93573467E+03  EK= 0.84526E+01 SP= 0.00E+00 SK= 0.00E+00
       N       E                     dE             d eps       ncg     rms          rms(c)
RMM:   1    -0.935655668271E+03    0.80131E-01   -0.41312E+00   720   0.381E+00    0.972E-01
RMM:   2    -0.935642134011E+03    0.13534E-01   -0.49755E-02   720   0.359E-01    0.479E-01
RMM:   3    -0.935640554376E+03    0.15796E-02   -0.90814E-03   720   0.140E-01    0.202E-01
RMM:   4    -0.935640293869E+03    0.26051E-03   -0.21480E-03   720   0.673E-02    0.717E-02
RMM:   5    -0.935640220420E+03    0.73449E-04   -0.31040E-04   720   0.268E-02    0.199E-02
RMM:   6    -0.935640203958E+03    0.16462E-04   -0.84601E-05   658   0.127E-02    0.150E-02
RMM:   7    -0.935640193913E+03    0.10045E-04   -0.41284E-05   586   0.871E-03    0.690E-03
RMM:   8    -0.935640189208E+03    0.47056E-05   -0.87519E-06   464   0.412E-03
   52 T=   327. E= -.92738525E+03 F= -.93563907E+03 E0= -.93563907E+03  EK= 0.82538E+01 SP= 0.00E+00 SK= 0.00E+00
       N       E                     dE             d eps       ncg     rms          rms(c)
RMM:   1    -0.935531964231E+03    0.10823E+00   -0.36160E+00   720   0.360E+00    0.886E-01
RMM:   2    -0.935520786966E+03    0.11177E-01   -0.47318E-02   720   0.350E-01    0.415E-01
RMM:   3    -0.935519720078E+03    0.10669E-02   -0.66584E-03   720   0.122E-01    0.185E-01
RMM:   4    -0.935519513236E+03    0.20684E-03   -0.17542E-03   720   0.634E-02    0.593E-02
RMM:   5    -0.935519454444E+03    0.58792E-04   -0.23465E-04   720   0.232E-02    0.184E-02
RMM:   6    -0.935519436720E+03    0.17725E-04   -0.75931E-05   658   0.120E-02    0.149E-02
RMM:   7    -0.935519426330E+03    0.10390E-04   -0.37218E-05   592   0.870E-03    0.605E-03
RMM:   8    -0.935519422083E+03    0.42473E-05   -0.68397E-06   463   0.363E-03
   53 T=   320. E= -.92745777E+03 F= -.93551830E+03 E0= -.93551830E+03  EK= 0.80605E+01 SP= 0.00E+00 SK= 0.00E+00
       N       E                     dE             d eps       ncg     rms          rms(c)
RMM:   1    -0.935347079439E+03    0.17235E+00   -0.36251E+00   720   0.359E+00    0.982E-01
RMM:   2    -0.935332601614E+03    0.14478E-01   -0.51072E-02   720   0.361E-01    0.457E-01
RMM:   3    -0.935331211346E+03    0.13903E-02   -0.79940E-03   720   0.133E-01    0.201E-01
RMM:   4    -0.935330987017E+03    0.22433E-03   -0.21837E-03   720   0.696E-02    0.704E-02
RMM:   5    -0.935330915168E+03    0.71849E-04   -0.31614E-04   720   0.269E-02    0.187E-02
RMM:   6    -0.935330910237E+03    0.49312E-05   -0.76957E-05   659   0.122E-02
   54 T=   313. E= -.92744957E+03 F= -.93532979E+03 E0= -.93532979E+03  EK= 0.78802E+01 SP= 0.00E+00 SK= 0.00E+00
       N       E                     dE             d eps       ncg     rms          rms(c)
RMM:   1    -0.935336462381E+03   -0.55472E-02   -0.38661E+00   720   0.367E+00    0.104E+00
RMM:   2    -0.935318775293E+03    0.17687E-01   -0.61536E-02   720   0.395E-01    0.446E-01
RMM:   3    -0.935317342110E+03    0.14332E-02   -0.84455E-03   720   0.135E-01    0.206E-01
RMM:   4    -0.935317044792E+03    0.29732E-03   -0.24144E-03   720   0.750E-02    0.701E-02
RMM:   5    -0.935316954544E+03    0.90249E-04   -0.38594E-04   720   0.293E-02    0.197E-02
RMM:   6    -0.935316939795E+03    0.14749E-04   -0.80358E-05   657   0.123E-02    0.159E-02
RMM:   7    -0.935316929940E+03    0.98547E-05   -0.34615E-05   589   0.861E-03
   55 T=   313. E= -.92742310E+03 F= -.93531581E+03 E0= -.93531581E+03  EK= 0.78927E+01 SP= 0.00E+00 SK= 0.00E+00
       N       E                     dE             d eps       ncg     rms          rms(c)
RMM:   1    -0.935442597303E+03   -0.12566E+00   -0.35228E+00   720   0.356E+00    0.102E+00
RMM:   2    -0.935426067279E+03    0.16530E-01   -0.60023E-02   720   0.385E-01    0.443E-01
RMM:   3    -0.935424751575E+03    0.13157E-02   -0.79654E-03   720   0.132E-01    0.204E-01
RMM:   4    -0.935424488930E+03    0.26264E-03   -0.20730E-03   720   0.701E-02    0.662E-02
RMM:   5    -0.935424425180E+03    0.63750E-04   -0.27346E-04   720   0.251E-02    0.180E-02
RMM:   6    -0.935424419915E+03    0.52650E-05   -0.75484E-05   657   0.121E-02
   56 T=   318. E= -.92741028E+03 F= -.93542329E+03 E0= -.93542329E+03  EK= 0.80130E+01 SP= 0.00E+00 SK= 0.00E+00
       N       E                     dE             d eps       ncg     rms          rms(c)
RMM:   1    -0.935498369211E+03   -0.73944E-01   -0.37946E+00   720   0.368E+00    0.114E+00
RMM:   2    -0.935476644970E+03    0.21724E-01   -0.71740E-02   720   0.421E-01    0.465E-01
RMM:   3    -0.935475304356E+03    0.13406E-02   -0.97373E-03   720   0.144E-01    0.216E-01
RMM:   4    -0.935475022865E+03    0.28149E-03   -0.25258E-03   720   0.781E-02    0.751E-02
RMM:   5    -0.935474929133E+03    0.93731E-04   -0.38843E-04   720   0.296E-02    0.189E-02
RMM:   6    -0.935474918184E+03    0.10949E-04   -0.78106E-05   659   0.123E-02    0.150E-02
RMM:   7    -0.935474908974E+03    0.92097E-05   -0.28324E-05   524   0.798E-03
   57 T=   317. E= -.92749530E+03 F= -.93547378E+03 E0= -.93547378E+03  EK= 0.79785E+01 SP= 0.00E+00 SK= 0.00E+00
       N       E                     dE             d eps       ncg     rms          rms(c)
RMM:   1    -0.935541617566E+03   -0.66699E-01   -0.41435E+00   720   0.383E+00    0.113E+00
RMM:   2    -0.935520522459E+03    0.21095E-01   -0.71043E-02   720   0.425E-01    0.474E-01
RMM:   3    -0.935518940890E+03    0.15816E-02   -0.92594E-03   720   0.142E-01    0.221E-01
RMM:   4    -0.935518590082E+03    0.35081E-03   -0.27311E-03   720   0.793E-02    0.747E-02
RMM:   5    -0.935518484674E+03    0.10541E-03   -0.43883E-04   720   0.314E-02    0.202E-02
RMM:   6    -0.935518464583E+03    0.20091E-04   -0.83918E-05   658   0.126E-02    0.158E-02
RMM:   7    -0.935518452650E+03    0.11933E-04   -0.38408E-05   610   0.883E-03    0.598E-03
RMM:   8    -0.935518448157E+03    0.44934E-05   -0.79832E-06   463   0.394E-03
   58 T=   313. E= -.92762042E+03 F= -.93551732E+03 E0= -.93551732E+03  EK= 0.78969E+01 SP= 0.00E+00 SK= 0.00E+00
       N       E                     dE             d eps       ncg     rms          rms(c)
RMM:   1    -0.935742931124E+03   -0.22448E+00   -0.37027E+00   720   0.363E+00    0.115E+00
RMM:   2    -0.935720275834E+03    0.22655E-01   -0.76265E-02   720   0.433E-01    0.450E-01
RMM:   3    -0.935719121524E+03    0.11543E-02   -0.90850E-03   720   0.140E-01    0.213E-01
RMM:   4    -0.935718875757E+03    0.24577E-03   -0.23873E-03   720   0.757E-02    0.731E-02
RMM:   5    -0.935718795341E+03    0.80416E-04   -0.34896E-04   720   0.284E-02    0.181E-02
RMM:   6    -0.935718790593E+03    0.47481E-05   -0.78768E-05   659   0.125E-02
   59 T=   321. E= -.92762158E+03 F= -.93571766E+03 E0= -.93571766E+03  EK= 0.80961E+01 SP= 0.00E+00 SK= 0.00E+00
       N       E                     dE             d eps       ncg     rms          rms(c)
RMM:   1    -0.936076003410E+03   -0.35721E+00   -0.39045E+00   720   0.374E+00    0.118E+00
RMM:   2    -0.936052656348E+03    0.23347E-01   -0.77020E-02   720   0.437E-01    0.466E-01
RMM:   3    -0.936051391602E+03    0.12647E-02   -0.10086E-02   720   0.147E-01    0.217E-01
RMM:   4    -0.936051151545E+03    0.24006E-03   -0.26284E-03   720   0.797E-02    0.779E-02
RMM:   5    -0.936051054943E+03    0.96602E-04   -0.42102E-04   720   0.309E-02    0.181E-02
RMM:   6    -0.936051048509E+03    0.64340E-05   -0.73062E-05   657   0.120E-02
   60 T=   335. E= -.92759816E+03 F= -.93604992E+03 E0= -.93604992E+03  EK= 0.84518E+01 SP= 0.00E+00 SK= 0.00E+00
       N       E                     dE             d eps       ncg     rms          rms(c)
RMM:   1    -0.936226962891E+03   -0.17591E+00   -0.37443E+00   720   0.367E+00    0.128E+00
RMM:   2    -0.936198432698E+03    0.28530E-01   -0.86606E-02   720   0.457E-01    0.501E-01
RMM:   3    -0.936196576003E+03    0.18567E-02   -0.11739E-02   720   0.157E-01    0.229E-01
RMM:   4    -0.936196120036E+03    0.45597E-03   -0.31006E-03   720   0.864E-02    0.823E-02
RMM:   5    -0.936195982878E+03    0.13716E-03   -0.50413E-04   720   0.335E-02    0.207E-02
RMM:   6    -0.936195959408E+03    0.23469E-04   -0.10203E-04   668   0.138E-02    0.175E-02
RMM:   7    -0.936195942846E+03    0.16563E-04   -0.47176E-05   638   0.982E-03    0.616E-03
RMM:   8    -0.936195936518E+03    0.63277E-05   -0.98582E-06   463   0.423E-03
   61 T=   341. E= -.92760960E+03 F= -.93619480E+03 E0= -.93619480E+03  EK= 0.85852E+01 SP= 0.00E+00 SK= 0.00E+00
       N       E                     dE             d eps       ncg     rms          rms(c)
RMM:   1    -0.936205503478E+03   -0.95606E-02   -0.41211E+00   720   0.380E+00    0.140E+00
RMM:   2    -0.936171326696E+03    0.34177E-01   -0.10441E-01   720   0.501E-01    0.531E-01
RMM:   3    -0.936169128043E+03    0.21987E-02   -0.12682E-02   720   0.165E-01    0.244E-01
RMM:   4    -0.936168577265E+03    0.55078E-03   -0.33013E-03   720   0.887E-02    0.833E-02
RMM:   5    -0.936168457654E+03    0.11961E-03   -0.47622E-04   720   0.333E-02    0.216E-02
RMM:   6    -0.936168443243E+03    0.14410E-04   -0.10054E-04   673   0.140E-02    0.171E-02
RMM:   7    -0.936168430491E+03    0.12753E-04   -0.40356E-05   615   0.917E-03    0.526E-03
RMM:   8    -0.936168425923E+03    0.45682E-05   -0.69795E-06   463   0.373E-03
   62 T=   339. E= -.92761596E+03 F= -.93616729E+03 E0= -.93616729E+03  EK= 0.85513E+01 SP= 0.00E+00 SK= 0.00E+00
       N       E                     dE             d eps       ncg     rms          rms(c)
RMM:   1    -0.936163190022E+03    0.52405E-02   -0.38336E+00   720   0.368E+00    0.149E+00
RMM:   2    -0.936122629128E+03    0.40561E-01   -0.11876E-01   720   0.531E-01    0.527E-01
RMM:   3    -0.936120432591E+03    0.21965E-02   -0.13707E-02   720   0.170E-01    0.243E-01
RMM:   4    -0.936119864292E+03    0.56830E-03   -0.36436E-03   720   0.951E-02    0.870E-02
RMM:   5    -0.936119714911E+03    0.14938E-03   -0.60281E-04   720   0.367E-02    0.212E-02
RMM:   6    -0.936119701704E+03    0.13207E-04   -0.99057E-05   668   0.138E-02    0.176E-02
RMM:   7    -0.936119689630E+03    0.12074E-04   -0.35870E-05   596   0.883E-03    0.446E-03
RMM:   8    -0.936119686395E+03    0.32345E-05   -0.57379E-06   463   0.338E-03
   63 T=   338. E= -.92760140E+03 F= -.93611854E+03 E0= -.93611854E+03  EK= 0.85171E+01 SP= 0.00E+00 SK= 0.00E+00
       N       E                     dE             d eps       ncg     rms          rms(c)
RMM:   1    -0.936307790317E+03   -0.18810E+00   -0.44911E+00   720   0.394E+00    0.151E+00
RMM:   2    -0.936266664902E+03    0.41125E-01   -0.12478E-01   720   0.545E-01    0.543E-01
RMM:   3    -0.936264511076E+03    0.21538E-02   -0.13663E-02   720   0.170E-01    0.255E-01
RMM:   4    -0.936263967036E+03    0.54404E-03   -0.36441E-03   720   0.935E-02    0.878E-02
RMM:   5    -0.936263830506E+03    0.13653E-03   -0.53076E-04   720   0.344E-02    0.221E-02
RMM:   6    -0.936263820726E+03    0.97793E-05   -0.11466E-04   687   0.149E-02    0.188E-02
RMM:   7    -0.936263807691E+03    0.13035E-04   -0.37546E-05   597   0.900E-03    0.430E-03
RMM:   8    -0.936263804092E+03    0.35995E-05   -0.54859E-06   463   0.334E-03
   64 T=   338. E= -.92773526E+03 F= -.93626266E+03 E0= -.93626266E+03  EK= 0.85274E+01 SP= 0.00E+00 SK= 0.00E+00
       N       E                     dE             d eps       ncg     rms          rms(c)
RMM:   1    -0.936465156563E+03   -0.20135E+00   -0.36531E+00   720   0.357E+00    0.140E+00
RMM:   2    -0.936429720963E+03    0.35436E-01   -0.10858E-01   720   0.506E-01    0.485E-01
RMM:   3    -0.936428002082E+03    0.17189E-02   -0.12241E-02   720   0.161E-01    0.225E-01
RMM:   4    -0.936427500723E+03    0.50136E-03   -0.30630E-03   720   0.864E-02    0.824E-02
RMM:   5    -0.936427365025E+03    0.13570E-03   -0.48916E-04   720   0.330E-02    0.201E-02
RMM:   6    -0.936427348644E+03    0.16381E-04   -0.97543E-05   672   0.137E-02    0.173E-02
RMM:   7    -0.936427334457E+03    0.14187E-04   -0.39605E-05   617   0.919E-03    0.485E-03
RMM:   8    -0.936427330898E+03    0.35591E-05   -0.54857E-06   463   0.331E-03
   65 T=   338. E= -.92789646E+03 F= -.93642618E+03 E0= -.93642618E+03  EK= 0.85297E+01 SP= 0.00E+00 SK= 0.00E+00
       N       E                     dE             d eps       ncg     rms          rms(c)
RMM:   1    -0.936412964019E+03    0.14370E-01   -0.37239E+00   720   0.358E+00    0.140E+00
RMM:   2    -0.936376518656E+03    0.36445E-01   -0.10883E-01   720   0.508E-01    0.488E-01
RMM:   3    -0.936374698952E+03    0.18197E-02   -0.12441E-02   720   0.162E-01    0.228E-01
RMM:   4    -0.936374211878E+03    0.48707E-03   -0.30765E-03   720   0.870E-02    0.814E-02
RMM:   5    -0.936374089428E+03    0.12245E-03   -0.48149E-04   720   0.329E-02    0.196E-02
RMM:   6    -0.936374078679E+03    0.10749E-04   -0.93967E-05   664   0.135E-02    0.165E-02
RMM:   7    -0.936374067950E+03    0.10729E-04   -0.34709E-05   596   0.874E-03    0.450E-03
RMM:   8    -0.936374065184E+03    0.27661E-05   -0.45742E-06   463   0.308E-03
   66 T=   335. E= -.92792420E+03 F= -.93637291E+03 E0= -.93637291E+03  EK= 0.84487E+01 SP= 0.00E+00 SK= 0.00E+00
       N       E                     dE             d eps       ncg     rms          rms(c)
RMM:   1    -0.936387715008E+03   -0.13647E-01   -0.40899E+00   720   0.374E+00    0.136E+00
RMM:   2    -0.936355377164E+03    0.32338E-01   -0.10079E-01   720   0.493E-01    0.512E-01
RMM:   3    -0.936353572746E+03    0.18044E-02   -0.12367E-02   720   0.162E-01    0.239E-01
RMM:   4    -0.936353161731E+03    0.41102E-03   -0.31767E-03   720   0.879E-02    0.841E-02
RMM:   5    -0.936353041475E+03    0.12026E-03   -0.50273E-04   720   0.340E-02    0.196E-02
RMM:   6    -0.936353034934E+03    0.65414E-05   -0.83840E-05   661   0.128E-02
   67 T=   334. E= -.92793819E+03 F= -.93635188E+03 E0= -.93635188E+03  EK= 0.84137E+01 SP= 0.00E+00 SK= 0.00E+00
       N       E                     dE             d eps       ncg     rms          rms(c)
RMM:   1    -0.936545482647E+03   -0.19244E+00   -0.39036E+00   720   0.370E+00    0.130E+00
RMM:   2    -0.936515959623E+03    0.29523E-01   -0.94167E-02   720   0.480E-01    0.481E-01
RMM:   3    -0.936514477873E+03    0.14818E-02   -0.10371E-02   720   0.149E-01    0.227E-01
RMM:   4    -0.936514104528E+03    0.37334E-03   -0.28525E-03   720   0.826E-02    0.782E-02
RMM:   5    -0.936513993680E+03    0.11085E-03   -0.45300E-04   720   0.321E-02    0.196E-02
RMM:   6    -0.936513979046E+03    0.14634E-04   -0.80819E-05   661   0.125E-02    0.150E-02
RMM:   7    -0.936513968920E+03    0.10126E-04   -0.24486E-05   494   0.745E-03    0.415E-03
RMM:   8    -0.936513965791E+03    0.31292E-05   -0.66025E-06   463   0.345E-03
   68 T=   338. E= -.92800386E+03 F= -.93651281E+03 E0= -.93651281E+03  EK= 0.85090E+01 SP= 0.00E+00 SK= 0.00E+00
       N       E                     dE             d eps       ncg     rms          rms(c)
RMM:   1    -0.936664422388E+03   -0.15045E+00   -0.41250E+00   720   0.380E+00    0.126E+00
RMM:   2    -0.936637298559E+03    0.27124E-01   -0.86045E-02   720   0.459E-01    0.501E-01
RMM:   3    -0.936635472366E+03    0.18262E-02   -0.11035E-02   720   0.153E-01    0.232E-01
RMM:   4    -0.936635092815E+03    0.37955E-03   -0.29380E-03   720   0.833E-02    0.794E-02
RMM:   5    -0.936634990450E+03    0.10236E-03   -0.43274E-04   720   0.312E-02    0.204E-02
RMM:   6    -0.936634978768E+03    0.11682E-04   -0.97949E-05   669   0.138E-02    0.173E-02
RMM:   7    -0.936634967356E+03    0.11411E-04   -0.36616E-05   604   0.888E-03    0.479E-03
RMM:   8    -0.936634963356E+03    0.39999E-05   -0.58342E-06   463   0.335E-03
   69 T=   338. E= -.92810886E+03 F= -.93663380E+03 E0= -.93663380E+03  EK= 0.85249E+01 SP= 0.00E+00 SK= 0.00E+00
       N       E                     dE             d eps       ncg     rms          rms(c)
RMM:   1    -0.936638149086E+03   -0.31817E-02   -0.37847E+00   720   0.366E+00    0.130E+00
RMM:   2    -0.936608108627E+03    0.30040E-01   -0.92256E-02   720   0.472E-01    0.495E-01
RMM:   3    -0.936606366722E+03    0.17419E-02   -0.11537E-02   720   0.157E-01    0.230E-01
RMM:   4    -0.936606008639E+03    0.35808E-03   -0.31940E-03   720   0.879E-02    0.835E-02
RMM:   5    -0.936605882020E+03    0.12662E-03   -0.52883E-04   720   0.345E-02    0.191E-02
RMM:   6    -0.936605876284E+03    0.57365E-05   -0.78706E-05   661   0.125E-02
   70 T=   336. E= -.92813996E+03 F= -.93660471E+03 E0= -.93660471E+03  EK= 0.84648E+01 SP= 0.00E+00 SK= 0.00E+00
       N       E                     dE             d eps       ncg     rms          rms(c)
RMM:   1    -0.936300217269E+03    0.30566E+00   -0.36940E+00   720   0.361E+00    0.127E+00
RMM:   2    -0.936273166270E+03    0.27051E-01   -0.83189E-02   720   0.449E-01    0.502E-01
RMM:   3    -0.936271437027E+03    0.17292E-02   -0.10969E-02   720   0.153E-01    0.229E-01
RMM:   4    -0.936271081691E+03    0.35534E-03   -0.29749E-03   720   0.838E-02    0.798E-02
RMM:   5    -0.936270972857E+03    0.10883E-03   -0.46326E-04   720   0.323E-02    0.195E-02
RMM:   6    -0.936270962719E+03    0.10138E-04   -0.78834E-05   663   0.124E-02    0.154E-02
RMM:   7    -0.936270953044E+03    0.96747E-05   -0.28877E-05   520   0.799E-03
   71 T=   324. E= -.92810427E+03 F= -.93626979E+03 E0= -.93626979E+03  EK= 0.81655E+01 SP= 0.00E+00 SK= 0.00E+00
       N       E                     dE             d eps       ncg     rms          rms(c)
RMM:   1    -0.935849703218E+03    0.42126E+00   -0.38657E+00   720   0.367E+00    0.136E+00
RMM:   2    -0.935816860560E+03    0.32843E-01   -0.97669E-02   720   0.487E-01    0.512E-01
RMM:   3    -0.935814846997E+03    0.20136E-02   -0.11947E-02   720   0.160E-01    0.238E-01
RMM:   4    -0.935814369102E+03    0.47790E-03   -0.31908E-03   720   0.882E-02    0.824E-02
RMM:   5    -0.935814247420E+03    0.12168E-03   -0.49100E-04   720   0.334E-02    0.205E-02
RMM:   6    -0.935814236315E+03    0.11105E-04   -0.89429E-05   661   0.132E-02    0.167E-02
RMM:   7    -0.935814224711E+03    0.11604E-04   -0.34488E-05   586   0.865E-03    0.454E-03
RMM:   8    -0.935814220878E+03    0.38333E-05   -0.55495E-06   463   0.327E-03
   72 T=   306. E= -.92810547E+03 F= -.93581305E+03 E0= -.93581305E+03  EK= 0.77076E+01 SP= 0.00E+00 SK= 0.00E+00
       N       E                     dE             d eps       ncg     rms          rms(c)
RMM:   1    -0.935752880066E+03    0.61345E-01   -0.38013E+00   720   0.362E+00    0.131E+00
RMM:   2    -0.935723055602E+03    0.29824E-01   -0.94284E-02   720   0.475E-01    0.487E-01
RMM:   3    -0.935721413833E+03    0.16418E-02   -0.10689E-02   720   0.151E-01    0.228E-01
RMM:   4    -0.935720981080E+03    0.43275E-03   -0.28479E-03   720   0.829E-02    0.787E-02
RMM:   5    -0.935720870621E+03    0.11046E-03   -0.41988E-04   720   0.310E-02    0.203E-02
RMM:   6    -0.935720857162E+03    0.13460E-04   -0.11319E-04   684   0.147E-02    0.185E-02
RMM:   7    -0.935720843894E+03    0.13267E-04   -0.41882E-05   626   0.935E-03    0.470E-03
RMM:   8    -0.935720839764E+03    0.41296E-05   -0.56902E-06   463   0.337E-03
   73 T=   299. E= -.92818926E+03 F= -.93571967E+03 E0= -.93571967E+03  EK= 0.75304E+01 SP= 0.00E+00 SK= 0.00E+00
       N       E                     dE             d eps       ncg     rms          rms(c)
RMM:   1    -0.935864435938E+03   -0.14359E+00   -0.34519E+00   720   0.348E+00    0.133E+00
RMM:   2    -0.935832864250E+03    0.31572E-01   -0.97666E-02   720   0.481E-01    0.478E-01
RMM:   3    -0.935831405719E+03    0.14585E-02   -0.10649E-02   720   0.150E-01    0.226E-01
RMM:   4    -0.935831053680E+03    0.35204E-03   -0.29743E-03   720   0.847E-02    0.812E-02
RMM:   5    -0.935830929410E+03    0.12427E-03   -0.49450E-04   720   0.331E-02    0.184E-02
RMM:   6    -0.935830924415E+03    0.49947E-05   -0.85524E-05   661   0.129E-02
   74 T=   302. E= -.92820765E+03 F= -.93582975E+03 E0= -.93582975E+03  EK= 0.76221E+01 SP= 0.00E+00 SK= 0.00E+00
       N       E                     dE             d eps       ncg     rms          rms(c)
RMM:   1    -0.935672556888E+03    0.15837E+00   -0.31209E+00   720   0.333E+00    0.125E+00
RMM:   2    -0.935643743809E+03    0.28813E-01   -0.85800E-02   720   0.454E-01    0.445E-01
RMM:   3    -0.935642366931E+03    0.13769E-02   -0.10330E-02   720   0.148E-01    0.209E-01
RMM:   4    -0.935641998011E+03    0.36892E-03   -0.28028E-03   720   0.823E-02    0.803E-02
RMM:   5    -0.935641865225E+03    0.13279E-03   -0.48718E-04   720   0.328E-02    0.186E-02
RMM:   6    -0.935641851179E+03    0.14046E-04   -0.10224E-04   668   0.139E-02    0.182E-02
RMM:   7    -0.935641837299E+03    0.13880E-04   -0.47565E-05   647   0.100E-02    0.536E-03
RMM:   8    -0.935641833715E+03    0.35845E-05   -0.60257E-06   463   0.352E-03
   75 T=   300. E= -.92807231E+03 F= -.93564066E+03 E0= -.93564066E+03  EK= 0.75684E+01 SP= 0.00E+00 SK= 0.00E+00
       N       E                     dE             d eps       ncg     rms          rms(c)
RMM:   1    -0.935197586398E+03    0.44425E+00   -0.37284E+00   720   0.362E+00    0.123E+00
RMM:   2    -0.935170966756E+03    0.26620E-01   -0.85723E-02   720   0.454E-01    0.465E-01
RMM:   3    -0.935169674262E+03    0.12925E-02   -0.97978E-03   720   0.144E-01    0.221E-01
RMM:   4    -0.935169387159E+03    0.28710E-03   -0.27560E-03   720   0.813E-02    0.778E-02
RMM:   5    -0.935169281766E+03    0.10539E-03   -0.44752E-04   720   0.316E-02    0.180E-02
RMM:   6    -0.935169274900E+03    0.68656E-05   -0.75170E-05   655   0.121E-02
   76 T=   287. E= -.92794573E+03 F= -.93516810E+03 E0= -.93516810E+03  EK= 0.72224E+01 SP= 0.00E+00 SK= 0.00E+00
       N       E                     dE             d eps       ncg     rms          rms(c)
RMM:   1    -0.935210093752E+03   -0.40812E-01   -0.40181E+00   720   0.374E+00    0.124E+00
RMM:   2    -0.935183471862E+03    0.26622E-01   -0.89564E-02   720   0.465E-01    0.488E-01
RMM:   3    -0.935182101381E+03    0.13705E-02   -0.10254E-02   720   0.148E-01    0.232E-01
RMM:   4    -0.935181792753E+03    0.30863E-03   -0.26974E-03   720   0.808E-02    0.782E-02
RMM:   5    -0.935181694144E+03    0.98609E-04   -0.39619E-04   720   0.302E-02    0.188E-02
RMM:   6    -0.935181687500E+03    0.66444E-05   -0.95713E-05   672   0.136E-02
   77 T=   286. E= -.92796184E+03 F= -.93518051E+03 E0= -.93518051E+03  EK= 0.72187E+01 SP= 0.00E+00 SK= 0.00E+00
       N       E                     dE             d eps       ncg     rms          rms(c)
RMM:   1    -0.935587798755E+03   -0.40610E+00   -0.36237E+00   720   0.356E+00    0.116E+00
RMM:   2    -0.935565827359E+03    0.21971E-01   -0.76943E-02   720   0.434E-01    0.460E-01
RMM:   3    -0.935564697792E+03    0.11296E-02   -0.88848E-03   720   0.139E-01    0.217E-01
RMM:   4    -0.935564459780E+03    0.23801E-03   -0.24163E-03   720   0.762E-02    0.728E-02
RMM:   5    -0.935564371250E+03    0.88529E-04   -0.37373E-04   720   0.293E-02    0.177E-02
RMM:   6    -0.935564362695E+03    0.85550E-05   -0.73414E-05   656   0.120E-02
   78 T=   300. E= -.92799404E+03 F= -.93556318E+03 E0= -.93556318E+03  EK= 0.75691E+01 SP= 0.00E+00 SK= 0.00E+00
       N       E                     dE             d eps       ncg     rms          rms(c)
RMM:   1    -0.935708025857E+03   -0.14365E+00   -0.43337E+00   720   0.389E+00    0.128E+00
RMM:   2    -0.935678717739E+03    0.29308E-01   -0.86307E-02   720   0.462E-01    0.508E-01
RMM:   3    -0.935676813993E+03    0.19037E-02   -0.12465E-02   720   0.162E-01    0.233E-01
RMM:   4    -0.935676443991E+03    0.37000E-03   -0.34650E-03   720   0.893E-02    0.918E-02
RMM:   5    -0.935676289669E+03    0.15432E-03   -0.60611E-04   720   0.367E-02    0.207E-02
RMM:   6    -0.935676277174E+03    0.12495E-04   -0.11948E-04   683   0.151E-02    0.201E-02
RMM:   7    -0.935676261885E+03    0.15289E-04   -0.52507E-05   646   0.105E-02    0.569E-03
RMM:   8    -0.935676256723E+03    0.51623E-05   -0.69435E-06   463   0.372E-03
   79 T=   308. E= -.92791160E+03 F= -.93567507E+03 E0= -.93567507E+03  EK= 0.77635E+01 SP= 0.00E+00 SK= 0.00E+00
       N       E                     dE             d eps       ncg     rms          rms(c)
RMM:   1    -0.935544622420E+03    0.13164E+00   -0.39308E+00   720   0.372E+00    0.117E+00
RMM:   2    -0.935521971343E+03    0.22651E-01   -0.75255E-02   720   0.429E-01    0.484E-01
RMM:   3    -0.935520547315E+03    0.14240E-02   -0.10006E-02   720   0.147E-01    0.222E-01
RMM:   4    -0.935520290955E+03    0.25636E-03   -0.27566E-03   720   0.812E-02    0.769E-02
RMM:   5    -0.935520194881E+03    0.96075E-04   -0.41433E-04   720   0.309E-02    0.182E-02
RMM:   6    -0.935520190543E+03    0.43380E-05   -0.74122E-05   659   0.121E-02
   80 T=   304. E= -.92786498E+03 F= -.93551900E+03 E0= -.93551900E+03  EK= 0.76540E+01 SP= 0.00E+00 SK= 0.00E+00
       N       E                     dE             d eps       ncg     rms          rms(c)
RMM:   1    -0.935359302252E+03    0.16089E+00   -0.39052E+00   720   0.369E+00    0.118E+00
RMM:   2    -0.935336781683E+03    0.22521E-01   -0.74845E-02   720   0.427E-01    0.497E-01
RMM:   3    -0.935335002188E+03    0.17795E-02   -0.10020E-02   720   0.147E-01    0.226E-01
RMM:   4    -0.935334600393E+03    0.40179E-03   -0.26046E-03   720   0.784E-02    0.733E-02
RMM:   5    -0.935334506803E+03    0.93590E-04   -0.35989E-04   720   0.287E-02    0.206E-02
RMM:   6    -0.935334484563E+03    0.22240E-04   -0.96946E-05   666   0.134E-02    0.164E-02
RMM:   7    -0.935334471209E+03    0.13354E-04   -0.40287E-05   614   0.907E-03    0.586E-03
RMM:   8    -0.935334465958E+03    0.52510E-05   -0.79925E-06   464   0.388E-03
   81 T=   299. E= -.92779428E+03 F= -.93533327E+03 E0= -.93533327E+03  EK= 0.75390E+01 SP= 0.00E+00 SK= 0.00E+00
       N       E                     dE             d eps       ncg     rms          rms(c)
RMM:   1    -0.935416607583E+03   -0.82136E-01   -0.41763E+00   720   0.380E+00    0.126E+00
RMM:   2    -0.935388610522E+03    0.27997E-01   -0.89568E-02   720   0.467E-01    0.489E-01
RMM:   3    -0.935386980444E+03    0.16301E-02   -0.10790E-02   720   0.152E-01    0.229E-01
RMM:   4    -0.935386614782E+03    0.36566E-03   -0.30082E-03   720   0.841E-02    0.807E-02
RMM:   5    -0.935386503642E+03    0.11114E-03   -0.45111E-04   720   0.321E-02    0.200E-02
RMM:   6    -0.935386492889E+03    0.10753E-04   -0.10597E-04   676   0.142E-02    0.181E-02
RMM:   7    -0.935386480671E+03    0.12218E-04   -0.39818E-05   618   0.916E-03    0.459E-03
RMM:   8    -0.935386476738E+03    0.39329E-05   -0.52164E-06   463   0.323E-03
   82 T=   304. E= -.92772272E+03 F= -.93538528E+03 E0= -.93538528E+03  EK= 0.76626E+01 SP= 0.00E+00 SK= 0.00E+00
       N       E                     dE             d eps       ncg     rms          rms(c)
RMM:   1    -0.935519450394E+03   -0.13297E+00   -0.35251E+00   720   0.349E+00    0.112E+00
RMM:   2    -0.935497483654E+03    0.21967E-01   -0.71204E-02   720   0.417E-01    0.440E-01
RMM:   3    -0.935496197461E+03    0.12862E-02   -0.88209E-03   720   0.137E-01    0.206E-01
RMM:   4    -0.935495910517E+03    0.28694E-03   -0.24389E-03   720   0.755E-02    0.742E-02
RMM:   5    -0.935495818757E+03    0.91759E-04   -0.37925E-04   720   0.294E-02    0.187E-02
RMM:   6    -0.935495812063E+03    0.66939E-05   -0.87723E-05   656   0.131E-02
   83 T=   309. E= -.92769791E+03 F= -.93549462E+03 E0= -.93549462E+03  EK= 0.77967E+01 SP= 0.00E+00 SK= 0.00E+00
       N       E                     dE             d eps       ncg     rms          rms(c)
RMM:   1    -0.935538453480E+03   -0.42635E-01   -0.36706E+00   720   0.359E+00    0.115E+00
RMM:   2    -0.935515575542E+03    0.22878E-01   -0.71696E-02   720   0.419E-01    0.461E-01
RMM:   3    -0.935514088650E+03    0.14869E-02   -0.98905E-03   720   0.144E-01    0.213E-01
RMM:   4    -0.935513812366E+03    0.27628E-03   -0.27640E-03   720   0.795E-02    0.779E-02
RMM:   5    -0.935513712959E+03    0.99407E-04   -0.44196E-04   720   0.313E-02    0.189E-02
RMM:   6    -0.935513708400E+03    0.45585E-05   -0.83868E-05   660   0.127E-02
   84 T=   310. E= -.92771007E+03 F= -.93551251E+03 E0= -.93551251E+03  EK= 0.78024E+01 SP= 0.00E+00 SK= 0.00E+00
       N       E                     dE             d eps       ncg     rms          rms(c)
RMM:   1    -0.935446164697E+03    0.67548E-01   -0.35849E+00   720   0.357E+00    0.103E+00
RMM:   2    -0.935429534030E+03    0.16631E-01   -0.61145E-02   720   0.388E-01    0.442E-01
RMM:   3    -0.935428387502E+03    0.11465E-02   -0.78259E-03   720   0.129E-01    0.205E-01
RMM:   4    -0.935428163794E+03    0.22371E-03   -0.20853E-03   720   0.699E-02    0.656E-02
RMM:   5    -0.935428100624E+03    0.63170E-04   -0.27668E-04   720   0.253E-02    0.182E-02
RMM:   6    -0.935428090601E+03    0.10023E-04   -0.76398E-05   654   0.120E-02    0.148E-02
RMM:   7    -0.935428081957E+03    0.86442E-05   -0.32898E-05   572   0.834E-03
   85 T=   308. E= -.92765386E+03 F= -.93542688E+03 E0= -.93542688E+03  EK= 0.77730E+01 SP= 0.00E+00 SK= 0.00E+00
       N       E                     dE             d eps       ncg     rms          rms(c)
RMM:   1    -0.935460857228E+03   -0.32767E-01   -0.39451E+00   720   0.371E+00    0.989E-01
RMM:   2    -0.935446140685E+03    0.14717E-01   -0.56776E-02   720   0.377E-01    0.456E-01
RMM:   3    -0.935444997932E+03    0.11428E-02   -0.79283E-03   720   0.131E-01    0.208E-01
RMM:   4    -0.935444823346E+03    0.17459E-03   -0.22427E-03   720   0.707E-02    0.710E-02
RMM:   5    -0.935444747795E+03    0.75551E-04   -0.33729E-04   720   0.278E-02    0.182E-02
RMM:   6    -0.935444743195E+03    0.46005E-05   -0.80999E-05   661   0.126E-02
   86 T=   311. E= -.92760254E+03 F= -.93544354E+03 E0= -.93544354E+03  EK= 0.78410E+01 SP= 0.00E+00 SK= 0.00E+00
       N       E                     dE             d eps       ncg     rms          rms(c)
RMM:   1    -0.935673481334E+03   -0.22873E+00   -0.39181E+00   720   0.368E+00    0.893E-01
RMM:   2    -0.935662371525E+03    0.11110E-01   -0.48072E-02   720   0.352E-01    0.436E-01
RMM:   3    -0.935661335431E+03    0.10361E-02   -0.74971E-03   720   0.128E-01    0.191E-01
RMM:   4    -0.935661193156E+03    0.14228E-03   -0.18058E-03   720   0.636E-02    0.655E-02
RMM:   5    -0.935661148188E+03    0.44967E-04   -0.24161E-04   720   0.240E-02    0.177E-02
RMM:   6    -0.935661143947E+03    0.42419E-05   -0.79199E-05   656   0.123E-02
   87 T=   318. E= -.92764917E+03 F= -.93565994E+03 E0= -.93565994E+03  EK= 0.80108E+01 SP= 0.00E+00 SK= 0.00E+00
       N       E                     dE             d eps       ncg     rms          rms(c)
RMM:   1    -0.935821074682E+03   -0.15993E+00   -0.42280E+00   720   0.382E+00    0.975E-01
RMM:   2    -0.935807294493E+03    0.13780E-01   -0.52880E-02   720   0.366E-01    0.468E-01
RMM:   3    -0.935805988102E+03    0.13064E-02   -0.88567E-03   720   0.138E-01    0.202E-01
RMM:   4    -0.935805805010E+03    0.18309E-03   -0.23286E-03   720   0.700E-02    0.755E-02
RMM:   5    -0.935805722803E+03    0.82208E-04   -0.37903E-04   720   0.293E-02    0.191E-02
RMM:   6    -0.935805711616E+03    0.11187E-04   -0.83578E-05   658   0.125E-02    0.162E-02
RMM:   7    -0.935805701587E+03    0.10030E-04   -0.37979E-05   572   0.853E-03    0.539E-03
RMM:   8    -0.935805697863E+03    0.37233E-05   -0.52433E-06   463   0.322E-03
   88 T=   321. E= -.92771579E+03 F= -.93580449E+03 E0= -.93580449E+03  EK= 0.80887E+01 SP= 0.00E+00 SK= 0.00E+00
       N       E                     dE             d eps       ncg     rms          rms(c)
RMM:   1    -0.935851858474E+03   -0.46157E-01   -0.41045E+00   720   0.378E+00    0.937E-01
RMM:   2    -0.935838748088E+03    0.13110E-01   -0.50324E-02   720   0.357E-01    0.453E-01
RMM:   3    -0.935837375699E+03    0.13724E-02   -0.82182E-03   720   0.133E-01    0.196E-01
RMM:   4    -0.935837178767E+03    0.19693E-03   -0.20829E-03   720   0.671E-02    0.682E-02
RMM:   5    -0.935837112623E+03    0.66145E-04   -0.30712E-04   720   0.267E-02    0.191E-02
RMM:   6    -0.935837098879E+03    0.13743E-04   -0.72275E-05   652   0.118E-02    0.148E-02
RMM:   7    -0.935837089703E+03    0.91767E-05   -0.34699E-05   574   0.832E-03
   89 T=   319. E= -.92779729E+03 F= -.93583588E+03 E0= -.93583588E+03  EK= 0.80386E+01 SP= 0.00E+00 SK= 0.00E+00
       N       E                     dE             d eps       ncg     rms          rms(c)
RMM:   1    -0.935771470302E+03    0.65629E-01   -0.38919E+00   720   0.367E+00    0.871E-01
RMM:   2    -0.935761442087E+03    0.10028E-01   -0.44005E-02   720   0.334E-01    0.446E-01
RMM:   3    -0.935760090842E+03    0.13512E-02   -0.74051E-03   720   0.127E-01    0.186E-01
RMM:   4    -0.935759906787E+03    0.18405E-03   -0.15947E-03   720   0.590E-02    0.584E-02
RMM:   5    -0.935759872624E+03    0.34163E-04   -0.18752E-04   719   0.212E-02    0.186E-02
RMM:   6    -0.935759859977E+03    0.12647E-04   -0.63046E-05   651   0.109E-02    0.124E-02
RMM:   7    -0.935759853251E+03    0.67254E-05   -0.25207E-05   504   0.720E-03
   90 T=   316. E= -.92780436E+03 F= -.93575865E+03 E0= -.93575865E+03  EK= 0.79543E+01 SP= 0.00E+00 SK= 0.00E+00
       N       E                     dE             d eps       ncg     rms          rms(c)
RMM:   1    -0.935670292254E+03    0.89568E-01   -0.39909E+00   720   0.373E+00    0.888E-01
RMM:   2    -0.935660242969E+03    0.10049E-01   -0.43674E-02   720   0.335E-01    0.464E-01
RMM:   3    -0.935658785315E+03    0.14577E-02   -0.75738E-03   720   0.129E-01    0.187E-01
RMM:   4    -0.935658591395E+03    0.19392E-03   -0.16353E-03   720   0.591E-02    0.575E-02
RMM:   5    -0.935658554103E+03    0.37292E-04   -0.17084E-04   720   0.205E-02    0.191E-02
RMM:   6    -0.935658539090E+03    0.15013E-04   -0.79479E-05   655   0.121E-02    0.139E-02
RMM:   7    -0.935658531493E+03    0.75968E-05   -0.44474E-05   615   0.904E-03
   91 T=   313. E= -.92777433E+03 F= -.93565732E+03 E0= -.93565732E+03  EK= 0.78830E+01 SP= 0.00E+00 SK= 0.00E+00
       N       E                     dE             d eps       ncg     rms          rms(c)
RMM:   1    -0.935649603262E+03    0.89358E-02   -0.34343E+00   720   0.348E+00    0.828E-01
RMM:   2    -0.935640632735E+03    0.89705E-02   -0.39530E-02   720   0.322E-01    0.414E-01
RMM:   3    -0.935639655625E+03    0.97711E-03   -0.61738E-03   720   0.118E-01    0.179E-01
RMM:   4    -0.935639528366E+03    0.12726E-03   -0.14849E-03   720   0.558E-02    0.576E-02
RMM:   5    -0.935639496079E+03    0.32287E-04   -0.18427E-04   720   0.211E-02    0.171E-02
RMM:   6    -0.935639488690E+03    0.73893E-05   -0.58698E-05   649   0.106E-02
   92 T=   313. E= -.92774095E+03 F= -.93563828E+03 E0= -.93563828E+03  EK= 0.78973E+01 SP= 0.00E+00 SK= 0.00E+00
       N       E                     dE             d eps       ncg     rms          rms(c)
RMM:   1    -0.935502613614E+03    0.13688E+00   -0.35542E+00   720   0.353E+00    0.800E-01
RMM:   2    -0.935494556007E+03    0.80576E-02   -0.36380E-02   720   0.311E-01    0.421E-01
RMM:   3    -0.935493427778E+03    0.11282E-02   -0.63681E-03   720   0.119E-01    0.172E-01
RMM:   4    -0.935493252963E+03    0.17481E-03   -0.14883E-03   720   0.553E-02    0.561E-02
RMM:   5    -0.935493205532E+03    0.47431E-04   -0.19107E-04   720   0.212E-02    0.186E-02
RMM:   6    -0.935493186241E+03    0.19291E-04   -0.72909E-05   657   0.115E-02    0.130E-02
RMM:   7    -0.935493177851E+03    0.83900E-05   -0.37204E-05   575   0.810E-03
   93 T=   312. E= -.92763470E+03 F= -.93549197E+03 E0= -.93549197E+03  EK= 0.78573E+01 SP= 0.00E+00 SK= 0.00E+00
       N       E                     dE             d eps       ncg     rms          rms(c)
RMM:   1    -0.935244959874E+03    0.24823E+00   -0.36586E+00   720   0.360E+00    0.751E-01
RMM:   2    -0.935238783157E+03    0.61767E-02   -0.35209E-02   720   0.305E-01    0.410E-01
RMM:   3    -0.935237964768E+03    0.81839E-03   -0.60594E-03   720   0.116E-01    0.164E-01
RMM:   4    -0.935237846993E+03    0.11777E-03   -0.12353E-03   720   0.508E-02    0.530E-02
RMM:   5    -0.935237816032E+03    0.30961E-04   -0.13533E-04   717   0.182E-02    0.177E-02
RMM:   6    -0.935237798478E+03    0.17554E-04   -0.71972E-05   652   0.115E-02    0.132E-02
RMM:   7    -0.935237790752E+03    0.77264E-05   -0.46872E-05   622   0.926E-03
[...]
RMM:   6    -0.938311089264E+03    0.53622E-05   -0.61140E-05   652   0.108E-02
  765 T=   300. E= -.93074828E+03 F= -.93830991E+03 E0= -.93830991E+03  EK= 0.75616E+01 SP= 0.00E+00 SK= 0.00E+00
       N       E                     dE             d eps       ncg     rms          rms(c)
RMM:   1    -0.938126366120E+03    0.18473E+00   -0.32558E+00   720   0.337E+00    0.820E-01
RMM:   2    -0.938117360912E+03    0.90052E-02   -0.36322E-02   720   0.309E-01    0.420E-01
RMM:   3    -0.938116068566E+03    0.12923E-02   -0.66281E-03   720   0.123E-01    0.169E-01
RMM:   4    -0.938115896236E+03    0.17233E-03   -0.14969E-03   720   0.581E-02    0.543E-02
RMM:   5    -0.938115862849E+03    0.33387E-04   -0.17517E-04   720   0.206E-02    0.178E-02
RMM:   6    -0.938115855819E+03    0.70306E-05   -0.58040E-05   652   0.107E-02
  766 T=   295. E= -.93069031E+03 F= -.93811467E+03 E0= -.93811467E+03  EK= 0.74244E+01 SP= 0.00E+00 SK= 0.00E+00
       N       E                     dE             d eps       ncg     rms          rms(c)
RMM:   1    -0.937960901787E+03    0.15496E+00   -0.32309E+00   720   0.336E+00    0.830E-01
RMM:   2    -0.937950895114E+03    0.10007E-01   -0.37845E-02   720   0.314E-01    0.415E-01
RMM:   3    -0.937949557361E+03    0.13378E-02   -0.64430E-03   720   0.121E-01    0.173E-01
RMM:   4    -0.937949354936E+03    0.20242E-03   -0.15678E-03   720   0.593E-02    0.551E-02
RMM:   5    -0.937949313807E+03    0.41129E-04   -0.18033E-04   720   0.210E-02    0.174E-02
RMM:   6    -0.937949305317E+03    0.84901E-05   -0.64427E-05   656   0.112E-02
  767 T=   289. E= -.93066248E+03 F= -.93794812E+03 E0= -.93794812E+03  EK= 0.72856E+01 SP= 0.00E+00 SK= 0.00E+00
       N       E                     dE             d eps       ncg     rms          rms(c)
RMM:   1    -0.938039747151E+03   -0.90433E-01   -0.30274E+00   720   0.325E+00    0.799E-01
RMM:   2    -0.938031442068E+03    0.83051E-02   -0.32762E-02   720   0.294E-01    0.416E-01
RMM:   3    -0.938030061366E+03    0.13807E-02   -0.60047E-03   720   0.118E-01    0.165E-01
RMM:   4    -0.938029836032E+03    0.22533E-03   -0.15408E-03   720   0.575E-02    0.541E-02
RMM:   5    -0.938029781265E+03    0.54767E-04   -0.20158E-04   720   0.215E-02    0.183E-02
RMM:   6    -0.938029762032E+03    0.19233E-04   -0.63510E-05   652   0.107E-02    0.131E-02
RMM:   7    -0.938029752551E+03    0.94811E-05   -0.28697E-05   522   0.738E-03
  768 T=   291. E= -.93069116E+03 F= -.93802857E+03 E0= -.93802857E+03  EK= 0.73374E+01 SP= 0.00E+00 SK= 0.00E+00
       N       E                     dE             d eps       ncg     rms          rms(c)
RMM:   1    -0.938248244763E+03   -0.21848E+00   -0.31662E+00   720   0.335E+00    0.792E-01
RMM:   2    -0.938240693108E+03    0.75517E-02   -0.33010E-02   720   0.294E-01    0.428E-01
RMM:   3    -0.938239226879E+03    0.14662E-02   -0.66542E-03   720   0.123E-01    0.158E-01
RMM:   4    -0.938239044217E+03    0.18266E-03   -0.12930E-03   720   0.539E-02    0.494E-02
RMM:   5    -0.938239012354E+03    0.31863E-04   -0.12602E-04   719   0.176E-02    0.176E-02
RMM:   6    -0.938238996372E+03    0.15982E-04   -0.62540E-05   654   0.108E-02    0.122E-02
RMM:   7    -0.938238989161E+03    0.72113E-05   -0.36301E-05   571   0.839E-03
  769 T=   298. E= -.93072016E+03 F= -.93823780E+03 E0= -.93823780E+03  EK= 0.75176E+01 SP= 0.00E+00 SK= 0.00E+00
       N       E                     dE             d eps       ncg     rms          rms(c)
RMM:   1    -0.938206532402E+03    0.32464E-01   -0.30065E+00   720   0.327E+00    0.764E-01
RMM:   2    -0.938198585035E+03    0.79474E-02   -0.31618E-02   720   0.289E-01    0.401E-01
RMM:   3    -0.938197184660E+03    0.14004E-02   -0.58914E-03   720   0.116E-01    0.158E-01
RMM:   4    -0.938197000891E+03    0.18377E-03   -0.13783E-03   720   0.553E-02    0.493E-02
RMM:   5    -0.938196972966E+03    0.27926E-04   -0.15985E-04   719   0.194E-02    0.175E-02
RMM:   6    -0.938196967504E+03    0.54614E-05   -0.50887E-05   647   0.995E-03
  770 T=   301. E= -.93062126E+03 F= -.93819578E+03 E0= -.93819578E+03  EK= 0.75745E+01 SP= 0.00E+00 SK= 0.00E+00
       N       E                     dE             d eps       ncg     rms          rms(c)
RMM:   1    -0.937888197031E+03    0.30878E+00   -0.30784E+00   720   0.328E+00    0.782E-01
RMM:   2    -0.937880541430E+03    0.76556E-02   -0.31008E-02   720   0.289E-01    0.420E-01
RMM:   3    -0.937879166685E+03    0.13747E-02   -0.60320E-03   720   0.118E-01    0.158E-01
RMM:   4    -0.937879023030E+03    0.14365E-03   -0.13459E-03   720   0.545E-02    0.503E-02
RMM:   5    -0.937878996816E+03    0.26214E-04   -0.14472E-04   720   0.186E-02    0.171E-02
RMM:   6    -0.937878993611E+03    0.32053E-05   -0.51150E-05   636   0.988E-03
  771 T=   291. E= -.93054062E+03 F= -.93787780E+03 E0= -.93787780E+03  EK= 0.73372E+01 SP= 0.00E+00 SK= 0.00E+00
       N       E                     dE             d eps       ncg     rms          rms(c)
RMM:   1    -0.937699767958E+03    0.17923E+00   -0.34595E+00   720   0.343E+00    0.746E-01
RMM:   2    -0.937692770483E+03    0.69975E-02   -0.31559E-02   720   0.289E-01    0.409E-01
RMM:   3    -0.937691323354E+03    0.14471E-02   -0.62665E-03   720   0.118E-01    0.148E-01
RMM:   4    -0.937691173436E+03    0.14992E-03   -0.11018E-03   720   0.495E-02    0.449E-02
RMM:   5    -0.937691156289E+03    0.17147E-04   -0.10443E-04   719   0.160E-02    0.174E-02
RMM:   6    -0.937691147150E+03    0.91395E-05   -0.46921E-05   643   0.939E-03
  772 T=   285. E= -.93049795E+03 F= -.93768996E+03 E0= -.93768996E+03  EK= 0.71920E+01 SP= 0.00E+00 SK= 0.00E+00
       N       E                     dE             d eps       ncg     rms          rms(c)
RMM:   1    -0.937838346405E+03   -0.14719E+00   -0.31818E+00   720   0.333E+00    0.749E-01
RMM:   2    -0.937830960803E+03    0.73856E-02   -0.31612E-02   720   0.289E-01    0.397E-01
RMM:   3    -0.937829739617E+03    0.12212E-02   -0.60943E-03   720   0.118E-01    0.153E-01
RMM:   4    -0.937829576528E+03    0.16309E-03   -0.13199E-03   720   0.535E-02    0.519E-02
RMM:   5    -0.937829544362E+03    0.32166E-04   -0.14674E-04   720   0.188E-02    0.176E-02
RMM:   6    -0.937829536236E+03    0.81263E-05   -0.62154E-05   653   0.109E-02
  773 T=   289. E= -.93053798E+03 F= -.93782835E+03 E0= -.93782835E+03  EK= 0.72904E+01 SP= 0.00E+00 SK= 0.00E+00
       N       E                     dE             d eps       ncg     rms          rms(c)
RMM:   1    -0.938060521234E+03   -0.23098E+00   -0.32031E+00   720   0.334E+00    0.770E-01
RMM:   2    -0.938052775154E+03    0.77461E-02   -0.31473E-02   720   0.290E-01    0.413E-01
RMM:   3    -0.938051263102E+03    0.15121E-02   -0.66264E-03   720   0.121E-01    0.158E-01
RMM:   4    -0.938051060035E+03    0.20307E-03   -0.13599E-03   720   0.546E-02    0.525E-02
RMM:   5    -0.938051013076E+03    0.46960E-04   -0.16280E-04   720   0.193E-02    0.185E-02
RMM:   6    -0.938050989312E+03    0.23764E-04   -0.69436E-05   655   0.112E-02    0.130E-02
RMM:   7    -0.938050979824E+03    0.94877E-05   -0.42005E-05   588   0.882E-03
  774 T=   294. E= -.93063273E+03 F= -.93804979E+03 E0= -.93804979E+03  EK= 0.74171E+01 SP= 0.00E+00 SK= 0.00E+00
       N       E                     dE             d eps       ncg     rms          rms(c)
RMM:   1    -0.937993721969E+03    0.57267E-01   -0.32110E+00   720   0.336E+00    0.756E-01
RMM:   2    -0.937986521255E+03    0.72007E-02   -0.31333E-02   720   0.287E-01    0.411E-01
RMM:   3    -0.937984997045E+03    0.15242E-02   -0.62235E-03   720   0.118E-01    0.152E-01
RMM:   4    -0.937984795483E+03    0.20156E-03   -0.11900E-03   720   0.514E-02    0.467E-02
RMM:   5    -0.937984759615E+03    0.35868E-04   -0.12552E-04   720   0.171E-02    0.185E-02
RMM:   6    -0.937984735543E+03    0.24072E-04   -0.60818E-05   650   0.105E-02    0.111E-02
RMM:   7    -0.937984726788E+03    0.87557E-05   -0.29667E-05   532   0.751E-03
  775 T=   289. E= -.93069427E+03 F= -.93798354E+03 E0= -.93798354E+03  EK= 0.72893E+01 SP= 0.00E+00 SK= 0.00E+00
       N       E                     dE             d eps       ncg     rms          rms(c)
RMM:   1    -0.937774579659E+03    0.21016E+00   -0.34480E+00   720   0.348E+00    0.812E-01
RMM:   2    -0.937765560683E+03    0.90190E-02   -0.34548E-02   720   0.303E-01    0.435E-01
RMM:   3    -0.937763927702E+03    0.16330E-02   -0.72134E-03   720   0.127E-01    0.166E-01
RMM:   4    -0.937763735287E+03    0.19242E-03   -0.15002E-03   720   0.580E-02    0.531E-02
RMM:   5    -0.937763702299E+03    0.32988E-04   -0.16531E-04   719   0.199E-02    0.182E-02
RMM:   6    -0.937763695252E+03    0.70472E-05   -0.57825E-05   653   0.105E-02
  776 T=   280. E= -.93070827E+03 F= -.93776250E+03 E0= -.93776250E+03  EK= 0.70542E+01 SP= 0.00E+00 SK= 0.00E+00
       N       E                     dE             d eps       ncg     rms          rms(c)
RMM:   1    -0.937652228656E+03    0.11147E+00   -0.29250E+00   720   0.321E+00    0.781E-01
RMM:   2    -0.937644298782E+03    0.79299E-02   -0.30454E-02   720   0.284E-01    0.417E-01
RMM:   3    -0.937642891475E+03    0.14073E-02   -0.62020E-03   720   0.120E-01    0.158E-01
RMM:   4    -0.937642724599E+03    0.16688E-03   -0.13085E-03   720   0.535E-02    0.506E-02
RMM:   5    -0.937642694254E+03    0.30345E-04   -0.14474E-04   720   0.189E-02    0.171E-02
RMM:   6    -0.937642687038E+03    0.72163E-05   -0.51296E-05   647   0.987E-03
  777 T=   272. E= -.93079488E+03 F= -.93764149E+03 E0= -.93764149E+03  EK= 0.68466E+01 SP= 0.00E+00 SK= 0.00E+00
       N       E                     dE             d eps       ncg     rms          rms(c)
RMM:   1    -0.937658268600E+03   -0.15574E-01   -0.30384E+00   720   0.324E+00    0.792E-01
RMM:   2    -0.937649642497E+03    0.86261E-02   -0.31513E-02   720   0.292E-01    0.418E-01
RMM:   3    -0.937648070603E+03    0.15719E-02   -0.62113E-03   720   0.120E-01    0.163E-01
RMM:   4    -0.937647839264E+03    0.23134E-03   -0.15284E-03   720   0.577E-02    0.533E-02
RMM:   5    -0.937647786494E+03    0.52770E-04   -0.18957E-04   719   0.210E-02    0.181E-02
RMM:   6    -0.937647766443E+03    0.20051E-04   -0.72640E-05   655   0.114E-02    0.140E-02
RMM:   7    -0.937647757054E+03    0.93898E-05   -0.41911E-05   607   0.887E-03
  778 T=   267. E= -.93092057E+03 F= -.93764656E+03 E0= -.93764656E+03  EK= 0.67260E+01 SP= 0.00E+00 SK= 0.00E+00
       N       E                     dE             d eps       ncg     rms          rms(c)
RMM:   1    -0.937662111149E+03   -0.14345E-01   -0.31755E+00   720   0.334E+00    0.815E-01
RMM:   2    -0.937653395622E+03    0.87155E-02   -0.32820E-02   720   0.294E-01    0.442E-01
RMM:   3    -0.937651694071E+03    0.17016E-02   -0.67394E-03   720   0.124E-01    0.163E-01
RMM:   4    -0.937651501122E+03    0.19295E-03   -0.14299E-03   720   0.560E-02    0.509E-02
RMM:   5    -0.937651466436E+03    0.34686E-04   -0.14621E-04   718   0.188E-02    0.182E-02
RMM:   6    -0.937651456156E+03    0.10280E-04   -0.61979E-05   649   0.107E-02    0.124E-02
RMM:   7    -0.937651450175E+03    0.59808E-05   -0.30250E-05   534   0.768E-03
  779 T=   268. E= -.93090358E+03 F= -.93765026E+03 E0= -.93765026E+03  EK= 0.67467E+01 SP= 0.00E+00 SK= 0.00E+00
       N       E                     dE             d eps       ncg     rms          rms(c)
RMM:   1    -0.937502425114E+03    0.14903E+00   -0.31711E+00   720   0.333E+00    0.785E-01
RMM:   2    -0.937494489045E+03    0.79361E-02   -0.31236E-02   720   0.286E-01    0.427E-01
RMM:   3    -0.937492834190E+03    0.16549E-02   -0.65609E-03   720   0.123E-01    0.155E-01
RMM:   4    -0.937492656751E+03    0.17744E-03   -0.13553E-03   720   0.539E-02    0.508E-02
RMM:   5    -0.937492625598E+03    0.31154E-04   -0.15108E-04   720   0.189E-02    0.183E-02
RMM:   6    -0.937492616914E+03    0.86834E-05   -0.55348E-05   651   0.101E-02
  780 T=   267. E= -.93076237E+03 F= -.93749142E+03 E0= -.93749142E+03  EK= 0.67290E+01 SP= 0.00E+00 SK= 0.00E+00
       N       E                     dE             d eps       ncg     rms          rms(c)
RMM:   1    -0.937230768609E+03    0.26186E+00   -0.33362E+00   720   0.339E+00    0.755E-01
RMM:   2    -0.937223553424E+03    0.72152E-02   -0.30892E-02   720   0.289E-01    0.410E-01
RMM:   3    -0.937222220910E+03    0.13325E-02   -0.59843E-03   720   0.117E-01    0.155E-01
RMM:   4    -0.937222071497E+03    0.14941E-03   -0.13253E-03   720   0.531E-02    0.511E-02
RMM:   5    -0.937222040623E+03    0.30874E-04   -0.15300E-04   719   0.189E-02    0.183E-02
RMM:   6    -0.937222032340E+03    0.82831E-05   -0.54788E-05   641   0.101E-02
  781 T=   260. E= -.93066592E+03 F= -.93722084E+03 E0= -.93722084E+03  EK= 0.65549E+01 SP= 0.00E+00 SK= 0.00E+00
       N       E                     dE             d eps       ncg     rms          rms(c)
RMM:   1    -0.937208990156E+03    0.13050E-01   -0.35010E+00   720   0.351E+00    0.776E-01
RMM:   2    -0.937201502401E+03    0.74878E-02   -0.32011E-02   720   0.291E-01    0.437E-01
RMM:   3    -0.937199754944E+03    0.17475E-02   -0.65145E-03   720   0.122E-01    0.151E-01
RMM:   4    -0.937199588189E+03    0.16676E-03   -0.10923E-03   720   0.484E-02    0.443E-02
RMM:   5    -0.937199567806E+03    0.20383E-04   -0.92336E-05   708   0.152E-02    0.184E-02
RMM:   6    -0.937199553594E+03    0.14212E-04   -0.57876E-05   652   0.103E-02    0.105E-02
RMM:   7    -0.937199547850E+03    0.57438E-05   -0.27341E-05   517   0.711E-03
  782 T=   260. E= -.93065673E+03 F= -.93719835E+03 E0= -.93719835E+03  EK= 0.65416E+01 SP= 0.00E+00 SK= 0.00E+00
       N       E                     dE             d eps       ncg     rms          rms(c)
RMM:   1    -0.937523562644E+03   -0.32401E+00   -0.31901E+00   720   0.332E+00    0.734E-01
RMM:   2    -0.937517169718E+03    0.63929E-02   -0.30469E-02   720   0.287E-01    0.397E-01
RMM:   3    -0.937515939562E+03    0.12302E-02   -0.53952E-03   720   0.112E-01    0.151E-01
RMM:   4    -0.937515796734E+03    0.14283E-03   -0.10875E-03   720   0.486E-02    0.455E-02
RMM:   5    -0.937515775657E+03    0.21077E-04   -0.10358E-04   713   0.160E-02    0.174E-02
RMM:   6    -0.937515764298E+03    0.11359E-04   -0.51320E-05   639   0.999E-03    0.110E-02
RMM:   7    -0.937515758956E+03    0.53417E-05   -0.24118E-05   500   0.692E-03
  783 T=   270. E= -.93071673E+03 F= -.93751456E+03 E0= -.93751456E+03  EK= 0.67978E+01 SP= 0.00E+00 SK= 0.00E+00
       N       E                     dE             d eps       ncg     rms          rms(c)
RMM:   1    -0.937820193169E+03   -0.30443E+00   -0.31909E+00   720   0.336E+00    0.705E-01
RMM:   2    -0.937814307292E+03    0.58859E-02   -0.28012E-02   720   0.271E-01    0.406E-01
RMM:   3    -0.937812814654E+03    0.14926E-02   -0.67102E-03   720   0.121E-01    0.130E-01
RMM:   4    -0.937812681971E+03    0.13268E-03   -0.93627E-04   720   0.451E-02    0.439E-02
RMM:   5    -0.937812663701E+03    0.18270E-04   -0.84517E-05   705   0.143E-02    0.178E-02
RMM:   6    -0.937812652199E+03    0.11502E-04   -0.51358E-05   635   0.973E-03    0.971E-03
RMM:   7    -0.937812647651E+03    0.45481E-05   -0.22912E-05   492   0.663E-03
  784 T=   280. E= -.93075494E+03 F= -.93781145E+03 E0= -.93781145E+03  EK= 0.70565E+01 SP= 0.00E+00 SK= 0.00E+00
       N       E                     dE             d eps       ncg     rms          rms(c)
RMM:   1    -0.937688965884E+03    0.12369E+00   -0.29954E+00   720   0.326E+00    0.694E-01
RMM:   2    -0.937683490379E+03    0.54755E-02   -0.27178E-02   720   0.269E-01    0.392E-01
RMM:   3    -0.937682190376E+03    0.13000E-02   -0.51085E-03   720   0.109E-01    0.136E-01
RMM:   4    -0.937682064874E+03    0.12550E-03   -0.87217E-04   720   0.439E-02    0.386E-02
RMM:   5    -0.937682051615E+03    0.13259E-04   -0.72252E-05   694   0.133E-02    0.168E-02
RMM:   6    -0.937682042129E+03    0.94858E-05   -0.43871E-05   631   0.917E-03
  785 T=   274. E= -.93077483E+03 F= -.93768085E+03 E0= -.93768085E+03  EK= 0.69060E+01 SP= 0.00E+00 SK= 0.00E+00
       N       E                     dE             d eps       ncg     rms          rms(c)
RMM:   1    -0.937352404949E+03    0.32965E+00   -0.31993E+00   720   0.336E+00    0.781E-01
RMM:   2    -0.937344763495E+03    0.76415E-02   -0.30911E-02   720   0.292E-01    0.423E-01
RMM:   3    -0.937343347963E+03    0.14155E-02   -0.61747E-03   720   0.120E-01    0.162E-01
RMM:   4    -0.937343183045E+03    0.16492E-03   -0.13321E-03   720   0.546E-02    0.504E-02
RMM:   5    -0.937343153016E+03    0.30029E-04   -0.14941E-04   719   0.190E-02    0.178E-02
RMM:   6    -0.937343143051E+03    0.99651E-05   -0.53771E-05   648   0.992E-03
  786 T=   262. E= -.93072653E+03 F= -.93734195E+03 E0= -.93734195E+03  EK= 0.66154E+01 SP= 0.00E+00 SK= 0.00E+00
       N       E                     dE             d eps       ncg     rms          rms(c)
RMM:   1    -0.937451907786E+03   -0.10875E+00   -0.35127E+00   720   0.351E+00    0.848E-01
RMM:   2    -0.937442333734E+03    0.95741E-02   -0.35501E-02   720   0.306E-01    0.462E-01
RMM:   3    -0.937440452641E+03    0.18811E-02   -0.74743E-03   720   0.130E-01    0.170E-01
RMM:   4    -0.937440234959E+03    0.21768E-03   -0.16093E-03   720   0.584E-02    0.547E-02
RMM:   5    -0.937440193223E+03    0.41736E-04   -0.17620E-04   717   0.203E-02    0.196E-02
RMM:   6    -0.937440181212E+03    0.12010E-04   -0.71763E-05   654   0.116E-02    0.135E-02
RMM:   7    -0.937440174136E+03    0.70764E-05   -0.30511E-05   536   0.756E-03
  787 T=   267. E= -.93071032E+03 F= -.93743898E+03 E0= -.93743898E+03  EK= 0.67287E+01 SP= 0.00E+00 SK= 0.00E+00
       N       E                     dE             d eps       ncg     rms          rms(c)
RMM:   1    -0.937782143969E+03   -0.34196E+00   -0.31293E+00   720   0.334E+00    0.778E-01
RMM:   2    -0.937774434666E+03    0.77093E-02   -0.30512E-02   720   0.284E-01    0.426E-01
RMM:   3    -0.937772882879E+03    0.15518E-02   -0.68480E-03   720   0.125E-01    0.156E-01
RMM:   4    -0.937772698277E+03    0.18460E-03   -0.15304E-03   720   0.570E-02    0.549E-02
RMM:   5    -0.937772651919E+03    0.46358E-04   -0.18502E-04   718   0.207E-02    0.183E-02
RMM:   6    -0.937772640328E+03    0.11591E-04   -0.69488E-05   652   0.112E-02    0.139E-02
RMM:   7    -0.937772632860E+03    0.74683E-05   -0.36652E-05   559   0.834E-03
  788 T=   277. E= -.93077751E+03 F= -.93777144E+03 E0= -.93777144E+03  EK= 0.69939E+01 SP= 0.00E+00 SK= 0.00E+00
       N       E                     dE             d eps       ncg     rms          rms(c)
RMM:   1    -0.937828232388E+03   -0.55592E-01   -0.30468E+00   720   0.329E+00    0.782E-01
RMM:   2    -0.937820507839E+03    0.77245E-02   -0.30438E-02   720   0.284E-01    0.422E-01
RMM:   3    -0.937819024076E+03    0.14838E-02   -0.61253E-03   720   0.119E-01    0.157E-01
RMM:   4    -0.937818855826E+03    0.16825E-03   -0.13663E-03   720   0.541E-02    0.508E-02
RMM:   5    -0.937818823134E+03    0.32692E-04   -0.15226E-04   719   0.191E-02    0.179E-02
RMM:   6    -0.937818814552E+03    0.85819E-05   -0.57143E-05   650   0.103E-02
  789 T=   284. E= -.93066587E+03 F= -.93781762E+03 E0= -.93781762E+03  EK= 0.71517E+01 SP= 0.00E+00 SK= 0.00E+00
       N       E                     dE             d eps       ncg     rms          rms(c)
RMM:   1    -0.937564155066E+03    0.25467E+00   -0.34362E+00   720   0.345E+00    0.798E-01
RMM:   2    -0.937555960271E+03    0.81948E-02   -0.33835E-02   720   0.299E-01    0.432E-01
RMM:   3    -0.937554321984E+03    0.16383E-02   -0.64714E-03   720   0.120E-01    0.166E-01
RMM:   4    -0.937554133251E+03    0.18873E-03   -0.14347E-03   720   0.561E-02    0.501E-02
RMM:   5    -0.937554099092E+03    0.34159E-04   -0.15977E-04   720   0.191E-02    0.185E-02
RMM:   6    -0.937554087214E+03    0.11878E-04   -0.57264E-05   643   0.101E-02    0.117E-02
RMM:   7    -0.937554081557E+03    0.56571E-05   -0.22445E-05   494   0.665E-03
