H2Otest NPT                             
           1
    12.468284   -0.067559   -0.022987
     0.000000   12.496307    0.011995
    -0.000000   -0.000000   12.459615
   O    H 
  64 128
Direct configuration=     5
   0.74966188  0.12699869  0.25945767
   0.55998589  0.56135548  0.68242857
   0.61222582  0.13145988  0.76180962
   0.12714036  0.77896307  0.36024352
   0.38692839  0.53827964  0.32243613
   0.84530365  0.13308663  0.75108265
   0.59877074  0.23345866  0.39534079
   0.98924058  0.95917351  0.33562840
   0.25137602  0.42841212  0.59882423
   0.68294681  0.74993476  0.44707190
   0.09607148  0.88448838  0.86236501
   0.26362347  0.15801019  0.71446217
   0.52414627  0.95149429  0.37834258
   0.01761542  0.60950563  0.31064683
   0.11550179  0.78722819  0.05573074
   0.07752716  0.53505721  0.90447896
   0.43099841  0.69526348  0.03334589
   0.10726039  0.07041568  0.58760785
   0.60514129 -0.00077609  0.97398442
   0.12424182  0.13710428  0.31895493
   0.32556869  0.00288071  0.51276807
   0.76488271  0.73244790  0.16926896
   0.25371563  0.04488109  0.97001574
   0.30361858  0.50728942  0.09905396
   0.42119562  0.89868677  0.91091151
   0.41912637  0.73523716  0.45719021
   0.24627264  0.38827663  0.40029765
   0.81716191  0.54938375  0.51379429
   0.57418893  0.42632083  0.31189038
   0.83742488  0.91702083  0.85189511
   0.09084588  0.51089584  0.12910409
   0.80114068  0.93493876  0.45011299
   0.81199354  0.50837289  0.26544955
   0.79339737  0.94073466  0.10770114
   0.06807893  0.39159351  0.70845753
   0.01747014  0.98404252  0.10741028
   0.50824586  0.32429496  0.84917694
   0.43639528  0.31291142  0.61760275
   0.27961306  0.80990335  0.74012916
   0.82447209  0.69133886  0.76896919
   0.51912599  0.38233212  0.10657845
   0.96176756  0.88946613  0.57867491
   0.66787507  0.07569262  0.56120457
   0.53107286  0.76555496  0.22113410
   0.56768513  0.53310830  0.92595951
   0.85561213  0.27738774  0.38836789
   0.83662651  0.16636369  0.97562243
   0.19244466  0.67813594  0.57087908
   0.00366409  0.60439446  0.66533296
   0.28798575  0.82670276  0.21123030
   0.05196655  0.33225130  0.25139073
   0.36042797  0.04615898  0.18808069
   0.76902308  0.61614380  0.98499786
   0.45111689  0.91872019  0.66815503
   0.86008652  0.43124425  0.04809535
   0.69475975  0.38016715  0.60136466
   0.29571873  0.38614975  0.90949611
   0.61479070  0.76591453  0.63709096
   0.12032063  0.26419430  0.89178002
   0.38292052  0.19571215  0.37568960
   0.03890682  0.19446788  0.08032911
   0.31500067  0.56119454  0.79168124
   0.55605637  0.13265097  0.14601167
   0.96886668  0.23286318  0.57637381
   0.77272956  0.05421269  0.27238257
   0.56077528  0.55998626  0.76125449
   0.58309583  0.20226353  0.77529682
   0.07524470  0.83736549  0.35122723
   0.33361191  0.48841149  0.36026861
   0.86896713  0.16014848  0.82115237
   0.58319940  0.30888909  0.35357474
   0.02904221  0.02738263  0.35617986
   0.31979704  0.38326033  0.61334109
   0.65307716  0.76679826  0.52202687
   0.13730315  0.85505613  0.80404258
   0.29843001  0.09848435  0.75223712
   0.57107168  0.01270779  0.39636812
   0.94184618  0.61978472  0.33684477
   0.18596548  0.79631038  0.09268571
   0.15046419  0.55962615  0.88395006
   0.48074380  0.73315939  0.08401955
   0.07054090 -0.00446035  0.58679457
   0.66640004  0.97150307  0.01075816
   0.18511239  0.14255581  0.36619097
   0.25285311  0.03171426  0.53986228
   0.78858642  0.68194245  0.22054857
   0.19273696  0.99845885  0.97484019
   0.31676903  0.58532951  0.08151770
   0.42693257  0.89973891  0.83402572
   0.34876677  0.76530747  0.47987999
   0.24289228  0.40257531  0.47495030
   0.87875863  0.57511051  0.55698974
   0.55207558  0.41345945  0.23462286
   0.82119877  0.91501814  0.92995243
   0.06461224  0.55390028  0.19093511
   0.75070952  0.87827250  0.43174401
   0.86038440  0.48656947  0.32765078
   0.87182940  0.96005423  0.11690373
   0.08904101  0.34194228  0.77791154
   0.04514068  0.90861046  0.08946602
   0.43679220  0.31691697  0.88225965
   0.39570582  0.24604245  0.61758774
   0.29457890  0.73894390  0.76824259
   0.88086489  0.64972510  0.72877090
   0.44314190  0.38956216  0.09713585
   0.89613706  0.90620335  0.53757159
   0.62703743  0.10069670  0.62588463
   0.51633635  0.83332856  0.26204009
   0.52085958  0.58587435  0.96872663
   0.89641409  0.25247571  0.45278942
   0.77180765  0.13222821  0.00691789
   0.17621164  0.70297299  0.49834319
   0.02269211  0.52529938  0.68330369
   0.31907351  0.89962325  0.22136292
   0.06709184  0.40107824  0.20996371
   0.31058187  0.07147592  0.13243932
   0.79908591  0.62681724  0.90943232
   0.40766740  0.96033282  0.61487458
   0.84479431  0.35343491  0.03479304
   0.75277010  0.42960121  0.57086491
   0.30335749  0.42576110  0.98034743
   0.58541603  0.69117992  0.66073351
   0.14789124  0.19164343  0.86311438
   0.33428729  0.26418630  0.37305201
   0.04549630  0.23552289  0.14473860
   0.32023205  0.48984436  0.83472685
   0.53776648  0.20402265  0.11707370
   0.91040029  0.20490591  0.62835367
   0.69006188  0.11703569  0.20250445
   0.60496809  0.50549184  0.65516678
   0.59112134  0.08794906  0.82587302
   0.18779808  0.79021351  0.30763277
   0.37965514  0.52522732  0.24481946
   0.76353751  0.13185972  0.75495701
   0.64333015  0.19816252  0.34757227
   0.91885406  0.97159253  0.37036962
   0.26379172  0.50411540  0.60853188
   0.62085317  0.73913464  0.40071458
   0.01663635  0.86633718  0.84728854
   0.19550001  0.12006495  0.68359702
   0.51748278  0.91916275  0.45190737
   0.06499031  0.67677708  0.32004613
   0.12120239  0.81364402  0.97700168
   0.04969615  0.47888333  0.85878872
   0.41466070  0.75667612  0.98070635
   0.05985630  0.12895273  0.56439759
   0.57857159  0.05990575  0.03074511
   0.09952364  0.21317520  0.30021048
   0.35560653  0.05820555  0.45944415
   0.76894660  0.69358353  0.10037178
   0.31115656  0.99395686  0.95011636
   0.22120043  0.50629157  0.12482233
   0.48991629  0.92920388  0.93737556
   0.40045788  0.66044161  0.42797329
   0.17903583  0.39078563  0.35759554
   0.76583745  0.60890884  0.50139110
   0.51995280  0.49624952  0.32918757
   0.83825616  0.99266364  0.82933133
   0.06745644  0.54195868  0.05355667
   0.75342059  0.98966379  0.48834632
   0.74010275  0.48348228  0.28448290
   0.78875885  0.86185982  0.13536319
   0.14040509  0.40696861  0.66881430
   0.02701763  0.98178169  0.18758572
   0.52019727  0.40313373  0.86250833
   0.45180834  0.31501047  0.69618591
   0.35106480  0.83998090  0.71120648
   0.85416709  0.76091170  0.78911427
   0.55128966  0.42270726  0.04905191
   0.97550381  0.81533392  0.55519604
   0.65807249  0.13650284  0.51335541
   0.61134750  0.76113245  0.21675171
   0.64175633  0.56525230  0.93717132
   0.80860580  0.21943357  0.36898444
   0.89607908  0.14554200  0.02302595
   0.21802272  0.73289263  0.61957975
   0.06862764  0.63475155  0.62524674
   0.34949649  0.77756960  0.20933003
   0.97678349  0.33844187  0.27684384
   0.35176222  0.09275298  0.24921882
   0.80419942  0.54837928  0.01436884
   0.50535385  0.88179713  0.62873485
   0.83186497  0.44460385  0.11824935
   0.66023513  0.34657527  0.53753857
   0.21637894  0.34812621  0.90037831
   0.66943651  0.78282483  0.68999312
   0.09012113  0.25229658  0.96561701
   0.45862935  0.21675711  0.38198417
   0.05592413  0.11448612  0.09364054
   0.36903217  0.55843525  0.73261128
   0.48793887  0.09697745  0.16625858
   0.00818720  0.28691171  0.61524833
H2Otest NPT                             
           1
    12.441976   -0.135633   -0.029039
    -0.000000   12.476642    0.067625
    -0.000000    0.000000   12.441569
   O    H 
  64 128
Direct configuration=    10
   0.74903520  0.12836880  0.26107602
   0.55712470  0.56206061  0.68208338
   0.61353336  0.13291079  0.76103546
   0.12722723  0.78105360  0.35843035
   0.38967285  0.53516547  0.32397102
   0.84205552  0.13556179  0.75146232
   0.60021642  0.23410344  0.39387640
   0.99309336  0.96118809  0.33540017
   0.24869774  0.42792251  0.59645467
   0.68051876  0.75011054  0.44871065
   0.09524984  0.88252588  0.85934223
   0.26387172  0.15549818  0.71383961
   0.52478031  0.95033043  0.38045115
   0.01617624  0.60937135  0.31021980
   0.11356520  0.78750994  0.05418296
   0.07919199  0.53419585  0.90524914
   0.42941388  0.69297387  0.03362510
   0.10931043  0.07105717  0.58858232
   0.60973600 -0.00041907  0.97588583
   0.12460623  0.13573556  0.31990455
   0.32474467  0.00280152  0.51237081
   0.76485612  0.73292235  0.17269871
   0.25351444  0.04623542  0.97288325
   0.30281050  0.50660701  0.10057936
   0.42312831  0.89712979  0.91272658
   0.41915086  0.73522523  0.45693467
   0.24548146  0.38689823  0.39890400
   0.81569106  0.54886328  0.51330201
   0.57343839  0.42575844  0.31216504
   0.83844278  0.91710994  0.85391183
   0.08759831  0.50905603  0.12699040
   0.80005749  0.93467937  0.45308472
   0.81195065  0.51054666  0.26410232
   0.79351986  0.94120318  0.10954021
   0.06978035  0.38951020  0.70957545
   0.01607356  0.98214120  0.10958689
   0.51097872  0.32312551  0.84967408
   0.43686412  0.31469074  0.61911454
   0.28248840  0.81046922  0.73981019
   0.82290098  0.68972912  0.77175242
   0.52059847  0.38212222  0.10740020
   0.96164219  0.89017267  0.58048940
   0.66662481  0.07696494  0.56072252
   0.53316207  0.76524123  0.22246636
   0.56731788  0.53063776  0.92757788
   0.85878402  0.27718285  0.38932869
   0.83760200  0.16715264  0.97625443
   0.19244896  0.67685210  0.56982504
   0.00250072  0.60370949  0.66648418
   0.28798670  0.82592711  0.21111021
   0.05295305  0.33338451  0.25005696
   0.36068097  0.04377232  0.18618093
   0.76925010  0.61627417  0.98749909
   0.45217927  0.91818990  0.66906789
   0.86152789  0.42942772  0.04422427
   0.69265798  0.38053847  0.60072988
   0.29516711  0.38763796  0.91046329
   0.61378046  0.76255854  0.63828100
   0.12072655  0.26209000  0.88819554
   0.38094679  0.19619069  0.37593949
   0.03721608  0.19419785  0.08036449
   0.31413704  0.56139340  0.78896724
   0.55524605  0.13405177  0.14372006
   0.96726457  0.23393653  0.57772960
   0.76621006  0.05255399  0.27608089
   0.56144655  0.56046314  0.76035297
   0.58898247  0.20739775  0.76727935
   0.07486322  0.84069218  0.34761152
   0.34127943  0.48100257  0.35902321
   0.87387181  0.15174722  0.82157082
   0.59617470  0.30655820  0.36143457
   0.03192836  0.02324837  0.35874956
   0.31910803  0.39416569  0.61131893
   0.65232731  0.75626666  0.52548694
   0.14084605  0.85586420  0.79791018
   0.30325495  0.09831114  0.74573137
   0.57335803  0.01220415  0.38924432
   0.94606797  0.63143377  0.33005536
   0.17745669  0.80297776  0.09641024
   0.14953524  0.55751083  0.88152832
   0.47432015  0.73922699  0.08061964
   0.07428549  0.00469813  0.57659253
   0.67703841  0.97103855  0.01375937
   0.18716238  0.13868153  0.36760911
   0.25963422  0.03358917  0.53924653
   0.79402119  0.67522491  0.22156642
   0.18744234  1.00098713  0.96826296
   0.32523979  0.57826762  0.07981767
   0.42827111  0.90277081  0.83210440
   0.35205471  0.76065659  0.48250087
   0.23580509  0.40218184  0.48355522
   0.88071556  0.57038237  0.55056715
   0.54189018  0.40944702  0.24055267
   0.82697398  0.92102829  0.93018036
   0.05817499  0.55317063  0.18906073
   0.75117971  0.86994856  0.43151949
   0.85713318  0.49169556  0.32246082
   0.87049768  0.95749625  0.11784050
   0.09396955  0.36017942  0.77323567
   0.04776188  0.91652591  0.08110943
   0.44365992  0.30804610  0.89056524
   0.39492276  0.24651456  0.62056385
   0.30522172  0.74297629  0.77624541
   0.87966079  0.64983894  0.73900518
   0.44126090  0.38825780  0.10223562
   0.89838427  0.91052206  0.53150290
   0.63597609  0.09777746  0.62838726
   0.51861916  0.82956724  0.25990893
   0.52519685  0.57678923  0.97238998
   0.89432677  0.25208244  0.45578632
   0.77713676  0.13386579  0.00641366
   0.17508048  0.70915014  0.49875836
   0.01400896  0.53164979  0.68454124
   0.32027273  0.89814873  0.20533580
   0.06113482  0.39771540  0.20409859
   0.31492266  0.06717928  0.12544996
   0.79679654  0.64013720  0.91623196
   0.40589361  0.95846803  0.61489950
   0.84840399  0.35411590  0.03064868
   0.74501033  0.43070671  0.57351857
   0.30239025  0.41824315  0.98163641
   0.60214401  0.68536585  0.65341335
   0.15137969  0.19634914  0.86785172
   0.33772955  0.25617683  0.37248283
   0.03794995  0.23722991  0.15173089
   0.31472138  0.49458479  0.83026988
   0.53495286  0.20308094  0.11395020
   0.91570089  0.19575351  0.62386471
   0.69600104  0.12352706  0.20680828
   0.60726524  0.50119988  0.65518160
   0.59855661  0.08927143  0.82318508
   0.18665562  0.80579368  0.31031873
   0.36748418  0.52004445  0.24832581
   0.76563129  0.13679503  0.75758389
   0.64798968  0.19270162  0.34021289
   0.91907748  0.96252446  0.36221732
   0.25762775  0.50510754  0.61230878
   0.61432493  0.74232205  0.40558574
   0.02216439  0.86818768  0.84768200
   0.20000556  0.12414768  0.68189670
   0.51495620  0.92069715  0.45201991
   0.05534933  0.67677519  0.32642378
   0.13333105  0.82167757  0.98719917
   0.05237841  0.48359856  0.85189781
   0.42523681  0.74303688  0.97398368
   0.06156477  0.13384287  0.57134319
   0.57885584  0.04682758  0.02279207
   0.10369048  0.20617434  0.30152533
   0.35367794  0.05945292  0.47134694
   0.76409151  0.69471642  0.10082546
   0.30905587  0.99559302  0.94469127
   0.22739360  0.51261112  0.11641964
   0.49246370  0.93005179  0.94005166
   0.39790457  0.66764299  0.43157251
   0.17899732  0.37073339  0.36154217
   0.77534333  0.61137959  0.49159279
   0.51959332  0.47277228  0.32819169
   0.83626644  0.99184822  0.82757549
   0.07024317  0.53962379  0.06200547
   0.75480918  0.97950774  0.49652033
   0.74022866  0.48241533  0.28905753
   0.79222617  0.86744634  0.13049296
   0.12889201  0.39848599  0.66091961
   0.03535189  0.97590030  0.18584036
   0.52422391  0.39696426  0.86973293
   0.45736985  0.32327627  0.69448911
   0.34789554  0.84162325  0.70638605
   0.85157213  0.76053206  0.79149207
   0.55655863  0.42411845  0.04634165
   0.97080523  0.81562774  0.56534934
   0.64758032  0.13337290  0.50532275
   0.60901277  0.75812454  0.20864805
   0.63458385  0.57593307  0.93529125
   0.81606563  0.21607902  0.36277482
   0.90015514  0.15125539  0.02209497
   0.21463621  0.73541390  0.62197115
   0.06776043  0.63241609  0.63507150
   0.34950352  0.77971271  0.21353462
   0.97706598  0.32904711  0.27151491
   0.36018694  0.09169304  0.25185272
   0.80085736  0.54594835 -0.00063945
   0.50338324  0.87760161  0.62156054
   0.83522896  0.45078094  0.11829320
   0.66398666  0.35200502  0.53429173
   0.22622269  0.35096301  0.91122838
   0.67717537  0.78122734  0.68337926
   0.08858906  0.24631465  0.96053738
   0.45922157  0.22096841  0.37345620
   0.05029837  0.12422709  0.10636538
   0.37626572  0.55542390  0.74364454
   0.48051041  0.09908829  0.14635601
   0.00671751  0.28640793  0.62844303
H2Otest NPT                             
           1
    12.426940   -0.193520   -0.032982
    -0.000000   12.463677    0.117266
     0.000000    0.000000   12.435899
   O    H 
  64 128
Direct configuration=    15
   0.74821395  0.12880379  0.26312551
   0.55481645  0.56200340  0.68106368
   0.61529295  0.13425007  0.75958339
   0.12721886  0.78398427  0.35630893
   0.39172968  0.53199099  0.32504202
   0.84042884  0.13772446  0.75163296
   0.60207928  0.23317786  0.39231809
   0.99619925  0.96217884  0.33478468
   0.24612489  0.42846745  0.59459913
   0.67928702  0.74973864  0.44932068
   0.09577284  0.88098273  0.85587831
   0.26362661  0.15389424  0.71354005
   0.52550492  0.94892270  0.38196887
   0.01554906  0.60917406  0.30960196
   0.11188680  0.78790725  0.05308113
   0.08009526  0.53352485  0.90631976
   0.42899012  0.69070568  0.03368942
   0.11219964  0.07196975  0.58909446
   0.61478008 -0.00140349  0.97697588
   0.12513163  0.13293926  0.32143021
   0.32389876  0.00186153  0.51188807
   0.76472531  0.73318402  0.17598128
   0.25402521  0.04697024  0.97639650
   0.30278328  0.50605158  0.10206696
   0.42462938  0.89650430  0.91413221
   0.41972918  0.73523732  0.45659979
   0.24472658  0.38546401  0.39769396
   0.81452991  0.54808424  0.51263001
   0.57292259  0.42505496  0.31109524
   0.83899999  0.91741064  0.85579533
   0.08484202  0.50669094  0.12702729
   0.79828096  0.93354264  0.45460936
   0.81054635  0.51281227  0.26191618
   0.79359640  0.94149045  0.11107877
   0.06982070  0.38784970  0.71036134
   0.01464810  0.97998612  0.11205810
   0.51328212  0.32154451  0.85032826
   0.43684806  0.31597765  0.62115303
   0.28444490  0.81006900  0.74029980
   0.82111071  0.68814760  0.77507755
   0.52172955  0.38122456  0.10762669
   0.96202982  0.89141235  0.58107109
   0.66523524  0.07733438  0.55893952
   0.53511628  0.76423134  0.22340306
   0.56722215  0.52852670  0.93002043
   0.86172504  0.27705528  0.39007919
   0.83875647  0.16888082  0.97694971
   0.19271094  0.67590348  0.56936914
   0.00016567  0.60407894  0.66779554
   0.28818321  0.82594476  0.21133927
   0.05300879  0.33471342  0.24918046
   0.36134048  0.04165575  0.18529013
   0.76877779  0.61653010  0.98943583
   0.45384538  0.91861608  0.66875403
   0.86294288  0.42859990  0.04061363
   0.69035206  0.38144303  0.60113057
   0.29602003  0.38964387  0.91158416
   0.61374503  0.75947784  0.64098245
   0.12041741  0.26089088  0.88444240
   0.37965722  0.19488207  0.37641555
   0.03555451  0.19434851  0.08122675
   0.31355096  0.56252759  0.78621515
   0.55310335  0.13572186  0.14063225
   0.96705928  0.23491743  0.57938079
   0.76175216  0.05309236  0.27475285
   0.56252471  0.55796644  0.76187097
   0.59274744  0.20952718  0.77205906
   0.07378199  0.84304085  0.35394624
   0.34651432  0.47320752  0.36000100
   0.86884271  0.14561058  0.82551995
   0.60885536  0.31620609  0.37615464
   0.03858615  0.02792323  0.36073171
   0.32201667  0.40182338  0.61071325
   0.65562661  0.74750258  0.52613103
   0.13802587  0.86026969  0.79726247
   0.30687194  0.09255077  0.74138105
   0.57525641  0.00823967  0.38363652
   0.94153690  0.63576572  0.31993382
   0.17169479  0.80242946  0.10714126
   0.14940909  0.55448313  0.87561715
   0.46699858  0.73584021  0.08980180
   0.06377213  0.00585790  0.57086449
   0.67882778  0.97177536  0.01403023
   0.18833057  0.14089048  0.36742833
   0.25734215  0.03487481  0.54352967
   0.79688063  0.67608247  0.21788318
   0.18341803  1.01165126  0.95973850
   0.34034766  0.57406170  0.07453269
   0.42994121  0.90181785  0.83756065
   0.35264356  0.76271623  0.48909749
   0.22415691  0.40044740  0.47122902
   0.88428043  0.56885972  0.54771501
   0.54770289  0.39824646  0.24090323
   0.83162381  0.92708603  0.93515298
   0.05179192  0.55217947  0.18304447
   0.75899109  0.86634118  0.44204341
   0.86049730  0.49050538  0.32266156
   0.87398512  0.96016121  0.11524594
   0.10835087  0.36087033  0.78271933
   0.05150788  0.91744641  0.07172030
   0.44869938  0.30143514  0.89151413
   0.39436625  0.24981405  0.62512554
   0.31390322  0.75215857  0.78161248
   0.88920456  0.65461304  0.74248668
   0.44438274  0.39424354  0.10171057
   0.90439496  0.91192896  0.53162809
   0.64198004  0.09352825  0.63510252
   0.52741530  0.83370423  0.26593737
   0.51434732  0.56928915  0.97810820
   0.89410560  0.25754496  0.46001504
   0.77587861  0.12682161  0.00983288
   0.17588249  0.71803435  0.50491911
   0.01086776  0.52343272  0.68565419
   0.31681265  0.89944034  0.19262915
   0.05602224  0.39587146  0.19370661
   0.31462477  0.06474369  0.12348513
   0.79457719  0.65582361  0.92212731
   0.40914054  0.95894996  0.61662350
   0.84520850  0.35191368  0.03230255
   0.74534396  0.43815641  0.57458132
   0.29756501  0.41783117  0.98854189
   0.61241580  0.67586430  0.64873460
   0.16446096  0.19507039  0.86429497
   0.33367299  0.26585772  0.37451804
   0.03251331  0.24317924  0.14016167
   0.30646095  0.49363486  0.83360164
   0.54107894  0.20932741  0.10960458
   0.91704662  0.18827256  0.62666379
   0.69090840  0.12971838  0.20292312
   0.59936095  0.50528089  0.65815829
   0.60420195  0.09297849  0.82866178
   0.19013485  0.81695660  0.31669449
   0.35876813  0.52720346  0.25160372
   0.75924210  0.14692132  0.76231188
   0.64422656  0.19469793  0.34323289
   0.92176313  0.95111517  0.36017176
   0.25145361  0.50449748  0.61542284
   0.61304908  0.74571918  0.40789588
   0.01576733  0.86826331  0.84187980
   0.20110445  0.11740068  0.67391812
   0.51502997  0.92057448  0.45311101
   0.05842558  0.67605184  0.33190934
   0.13589496  0.82561735  0.98322960
   0.05533373  0.49223102  0.84459816
   0.42951877  0.73043563  0.96229884
   0.05800505  0.12905171  0.57985848
   0.57638595  0.04773861  0.03505439
   0.10877396  0.21234502  0.30302079
   0.36195463  0.06815038  0.47512402
   0.75946654  0.69719121  0.10507488
   0.30708806  1.00144171  0.94095183
   0.21865514  0.51561192  0.11039725
   0.49347652  0.92887376  0.93894682
   0.39860776  0.66271918  0.42374025
   0.17465670  0.35560762  0.36968846
   0.78668493  0.61851074  0.48456919
   0.50161672  0.46686886  0.34269092
   0.83714155  0.98816617  0.82002764
   0.06258962  0.54070737  0.05066053
   0.75235109  0.97506253  0.51049962
   0.74236005  0.48721370  0.29313481
   0.79034486  0.86096480  0.13224697
   0.13316156  0.38967377  0.65498476
   0.03501957  0.97124202  0.18951018
   0.53583642  0.39395971  0.87533607
   0.46829216  0.33252570  0.69339054
   0.34884550  0.84304276  0.70067539
   0.84767909  0.76141792  0.79168653
   0.55065439  0.42433475  0.04726653
   0.97200233  0.81313638  0.57541398
   0.63886546  0.13038233  0.50983137
   0.61404314  0.76008179  0.20326664
   0.63500282  0.57172003  0.93255003
   0.82630162  0.21573635  0.35535137
   0.90352519  0.15851267  0.02258610
   0.21419886  0.73356691  0.61860430
   0.07365859  0.63123506  0.64202652
   0.35072760  0.77755471  0.21940023
   0.97826669  0.31999426  0.27651635
   0.35936576  0.09096653  0.24579342
   0.79989552  0.54051498 -0.01526312
   0.49956432  0.86956203  0.63233183
   0.84494212  0.44641881  0.11365543
   0.66184494  0.35300502  0.53328097
   0.22594489  0.34028635  0.91821067
   0.68217518  0.77804679  0.67387218
   0.08786828  0.23673698  0.95487708
   0.45546970  0.21539619  0.37154225
   0.04761552  0.11862289  0.11307378
   0.38537008  0.55531586  0.75008857
   0.48129172  0.09868101  0.14122944
  -0.00420208  0.28203228  0.63374087
H2Otest NPT                             
           1
    12.362013   -0.241307   -0.027779
    -0.000000   12.388122    0.178637
     0.000000   -0.000000   12.409965
   O    H 
  64 128
Direct configuration=    20
   0.74605418  0.12969508  0.26382112
   0.55206178  0.56166119  0.68101506
   0.61721828  0.13523910  0.75937021
   0.12757637  0.78681823  0.35455937
   0.39298833  0.52847227  0.32651187
   0.83889335  0.13875869  0.75181535
   0.60267203  0.23249783  0.39290922
   0.99951712  0.96194384  0.33364833
   0.24402661  0.42996736  0.59338326
   0.67916929  0.74869623  0.44906147
   0.09555144  0.87917635  0.85306972
   0.26363540  0.15210211  0.71419254
   0.52554551  0.94704506  0.38157355
   0.01486358  0.60954915  0.30943907
   0.11112583  0.78926501  0.05246752
   0.08115803  0.53265209  0.90728010
   0.42923470  0.68839089  0.03370861
   0.11376504  0.07163347  0.58825359
   0.61801119 -0.00143045  0.97900399
   0.12515679  0.13143881  0.32293861
   0.32356462  0.00192533  0.51136195
   0.76440255  0.73397746  0.17817940
   0.25365295  0.04775867  0.97949278
   0.30276100  0.50577440  0.10439106
   0.42664644  0.89625884  0.91528962
   0.42055848  0.73451988  0.45563599
   0.24279584  0.38243276  0.39485168
   0.81464849  0.54875481  0.51138549
   0.57155981  0.42540969  0.31117122
   0.83923819  0.91737415  0.85772364
   0.08213061  0.50586836  0.12631166
   0.79597262  0.93339668  0.45564944
   0.80943704  0.51466645  0.26100703
   0.79410810  0.94126564  0.11259374
   0.07092668  0.38619145  0.71238627
   0.01382004  0.97738696  0.11446346
   0.51513676  0.31972833  0.85008835
   0.43677427  0.31808535  0.62307394
   0.28568595  0.80916766  0.74013598
   0.82061334  0.68653028  0.77821584
   0.52220008  0.37975919  0.10761058
   0.96394931  0.89239834  0.58279443
   0.66385000  0.07665964  0.55759802
   0.53765259  0.76355924  0.22398138
   0.56678398  0.52720715  0.93292300
   0.86480723  0.27832125  0.39053107
   0.83948570  0.17091603  0.97796785
   0.19325105  0.67634188  0.56872723
  -0.00144975  0.60403432  0.66839646
   0.28826481  0.82629844  0.21137394
   0.05299979  0.33554302  0.24772350
   0.36136489  0.03977828  0.18335298
   0.76840562  0.61705414  0.98975079
   0.45507922  0.91886697  0.66861028
   0.86385927  0.42718184  0.03654684
   0.68809391  0.38358380  0.60069724
   0.29571146  0.38996555  0.91471958
   0.61455921  0.75599214  0.64367423
   0.12074509  0.25904180  0.88139715
   0.37704982  0.19432464  0.37650704
   0.03412217  0.19316467  0.08099733
   0.31386766  0.56362274  0.78413047
   0.55057892  0.13810559  0.13658444
   0.96669645  0.23430884  0.58133429
   0.75816366  0.05119794  0.27244326
   0.56213339  0.55727744  0.75759857
   0.59508088  0.20793359  0.77963196
   0.07419601  0.84470168  0.36603651
   0.34907831  0.47350578  0.36283065
   0.86074643  0.14499889  0.82757291
   0.61447418  0.31200234  0.38045421
   0.03177570  0.02838161  0.35947094
   0.31746147  0.40428264  0.60785813
   0.65511527  0.74756790  0.52630202
   0.14221959  0.85997292  0.78891455
   0.30460105  0.09354434  0.73797921
   0.58289512  0.00441384  0.38573968
   0.93984104  0.63300876  0.30529395
   0.16244847  0.79488586  0.11079835
   0.15274579  0.55579577  0.87840146
   0.46026884  0.72977327  0.09384603
   0.06656571  0.01007891  0.58010358
   0.68351175  0.96874025  0.01639574
   0.18973108  0.14091303  0.36711690
   0.26025849  0.03181534  0.54660853
   0.79918256  0.67382502  0.21839349
   0.18385708  1.02273043  0.95450050
   0.34382404  0.56561812  0.07334906
   0.43449763  0.89918093  0.83473280
   0.35769498  0.75913616  0.49050351
   0.22147655  0.40371742  0.47191632
   0.88348543  0.56230112  0.54511120
   0.55878682  0.39236027  0.23899791
   0.83552050  0.93816847  0.93164666
   0.04755090  0.55493027  0.18068039
   0.75960839  0.85683137  0.45330712
   0.86095059  0.49009582  0.31450889
   0.87087717  0.95973364  0.10979701
   0.10524944  0.35651901  0.77235714
   0.04888119  0.92154572  0.07441833
   0.45050720  0.30444631  0.89071473
   0.39352497  0.25239811  0.63841507
   0.31914438  0.75417144  0.78954817
   0.88811728  0.66203907  0.74960766
   0.44626379  0.40027353  0.10431897
   0.90271713  0.90871772  0.52775173
   0.64873595  0.09127755  0.63233219
   0.53911607  0.82626833  0.26691583
   0.51263291  0.56226071  0.97316951
   0.89289848  0.26308086  0.46472015
   0.78641737  0.12466008  0.00927380
   0.17123729  0.72127625  0.50428896
   0.00797752  0.52967742  0.68274261
   0.31675116  0.89588984  0.18841585
   0.05057171  0.39391271  0.19112854
   0.31104320  0.06566605  0.12862808
   0.79381637  0.66137300  0.92973852
   0.41447292  0.95996365  0.61104547
   0.84111194  0.35027784  0.03318452
   0.73645765  0.43886479  0.57568700
   0.29673607  0.42295720  0.98559327
   0.60942896  0.67635867  0.65206736
   0.17392228  0.20607786  0.85616883
   0.34237555  0.26072758  0.38177324
   0.03210580  0.25498328  0.13504269
   0.30209378  0.49930780  0.82905395
   0.54816161  0.21111772  0.11097849
   0.91657955  0.18878419  0.62436056
   0.69262821  0.13434057  0.20867626
   0.59584961  0.49642082  0.64927197
   0.61026815  0.09914018  0.82747844
   0.19270804  0.81716926  0.32002819
   0.35746772  0.53901058  0.25788365
   0.76378849  0.15635913  0.75791051
   0.65323967  0.19354562  0.34088964
   0.92832658  0.95217108  0.36598481
   0.24272786  0.50444275  0.61749883
   0.61027260  0.74742810  0.40795481
   0.02006530  0.87697144  0.83309901
   0.20767970  0.11363985  0.67115328
   0.51776848  0.92258327  0.45902780
   0.06449758  0.66938119  0.32861322
   0.13168343  0.81755657  0.98508162
   0.04640816  0.50196631  0.84228484
   0.43300917  0.72197490  0.96354711
   0.05895120  0.13323973  0.58619190
   0.59389456  0.03903390  0.03631696
   0.11011730  0.20342455  0.30160014
   0.36089375  0.06143516  0.48253137
   0.75808556  0.69782421  0.10677374
   0.30732540  1.00281488  0.94092885
   0.22697741  0.51963240  0.10565370
   0.49983263  0.92549336  0.93797780
   0.40510800  0.67083362  0.41601991
   0.17651844  0.35132578  0.36653668
   0.79298093  0.61493450  0.47903065
   0.50770981  0.45207133  0.33475031
   0.83836953  0.98495595  0.81345329
   0.06007255  0.52323799  0.05689122
   0.75514241  0.97195660  0.50735789
   0.73815185  0.49357817  0.29355198
   0.79084881  0.86654229  0.13529983
   0.13258608  0.38628482  0.66371071
   0.02600064  0.96194259  0.19178595
   0.54549998  0.38651885  0.88148557
   0.47403410  0.33337711  0.68992900
   0.34794877  0.84508377  0.70088141
   0.83976440  0.76317677  0.79373969
   0.55023791  0.42772034  0.04607371
   0.97347209  0.81463667  0.58555521
   0.62968872  0.13833993  0.51624204
   0.61296480  0.76142011  0.20290749
   0.63945537  0.56541587  0.94062804
   0.83801519  0.21444384  0.35325440
   0.90528978  0.16767271  0.02400310
   0.21950018  0.72848680  0.62442371
   0.07144327  0.62726408  0.64704270
   0.34840213  0.78028840  0.22384694
   0.98355892  0.32021843  0.28327309
   0.35213549  0.09308374  0.24320927
   0.80012422  0.54773121 -0.02347036
   0.50256573  0.85796628  0.64367196
   0.85081402  0.44371364  0.11393636
   0.66145341  0.34948748  0.53540433
   0.23597904  0.33822429  0.91072171
   0.68757179  0.77692696  0.67013737
   0.08714352  0.23261053  0.95057115
   0.45795680  0.21377318  0.37620487
   0.04302033  0.12257382  0.10862713
   0.38604896  0.55648283  0.75825703